# vtk DataFile Version 2.0
test
ASCII
DATASET UNSTRUCTURED_GRID
POINTS 6400 float
0.0 0.0 0.0
0.0 4.165 0.0
0.0 8.33 0.0
0.0 12.495000000000001 0.0
0.0 16.66 0.0
0.0 20.825 0.0
0.0 24.990000000000002 0.0
0.0 29.155 0.0
0.0 33.32 0.0
0.0 37.485 0.0
0.0 41.65 0.0
0.0 45.815 0.0
0.0 49.980000000000004 0.0
0.0 54.145 0.0
0.0 58.31 0.0
0.0 62.475 0.0
0.0 66.64 0.0
0.0 70.805 0.0
0.0 74.97 0.0
0.0 79.135 0.0
0.0 83.3 0.0
0.0 87.465 0.0
0.0 91.63 0.0
0.0 95.795 0.0
0.0 99.96000000000001 0.0
0.0 104.125 0.0
0.0 108.29 0.0
0.0 112.455 0.0
0.0 116.62 0.0
0.0 120.785 0.0
0.0 124.95 0.0
0.0 129.115 0.0
0.0 133.28 0.0
0.0 137.445 0.0
0.0 141.61 0.0
0.0 145.775 0.0
0.0 149.94 0.0
0.0 154.105 0.0
0.0 158.27 0.0
0.0 162.435 0.0
0.0 166.6 0.0
0.0 170.76500000000001 0.0
0.0 174.93 0.0
0.0 179.095 0.0
0.0 183.26 0.0
0.0 187.425 0.0
0.0 191.59 0.0
0.0 195.755 0.0
0.0 199.92000000000002 0.0
0.0 204.085 0.0
0.0 208.25 0.0
0.0 212.415 0.0
0.0 216.58 0.0
0.0 220.745 0.0
0.0 224.91 0.0
0.0 229.075 0.0
0.0 233.24 0.0
0.0 237.405 0.0
0.0 241.57 0.0
0.0 245.735 0.0
0.0 249.9 0.0
0.0 254.065 0.0
0.0 258.23 0.0
0.0 262.395 0.0
0.0 266.56 0.0
0.0 270.725 0.0
0.0 274.89 0.0
0.0 279.055 0.0
0.0 283.22 0.0
0.0 287.385 0.0
0.0 291.55 0.0
0.0 295.715 0.0
0.0 299.88 0.0
0.0 304.045 0.0
0.0 308.21 0.0
0.0 312.375 0.0
0.0 316.54 0.0
0.0 320.705 0.0
0.0 324.87 0.0
0.0 329.035 0.0
4.165 0.0 0.0
4.165 4.165 0.0
4.165 8.33 0.0
4.165 12.495000000000001 0.0
4.165 16.66 0.0
4.165 20.825 0.0
4.165 24.990000000000002 0.0
4.165 29.155 0.0
4.165 33.32 0.0
4.165 37.485 0.0
4.165 41.65 0.0
4.165 45.815 0.0
4.165 49.980000000000004 0.0
4.165 54.145 0.0
4.165 58.31 0.0
4.165 62.475 0.0
4.165 66.64 0.0
4.165 70.805 0.0
4.165 74.97 0.0
4.165 79.135 0.0
4.165 83.3 0.0
4.165 87.465 0.0
4.165 91.63 0.0
4.165 95.795 0.0
4.165 99.96000000000001 0.0
4.165 104.125 0.0
4.165 108.29 0.0
4.165 112.455 0.0
4.165 116.62 0.0
4.165 120.785 0.0
4.165 124.95 0.0
4.165 129.115 0.0
4.165 133.28 0.0
4.165 137.445 0.0
4.165 141.61 0.0
4.165 145.775 0.0
4.165 149.94 0.0
4.165 154.105 0.0
4.165 158.27 0.0
4.165 162.435 0.0
4.165 166.6 0.0
4.165 170.76500000000001 0.0
4.165 174.93 0.0
4.165 179.095 0.0
4.165 183.26 0.0
4.165 187.425 0.0
4.165 191.59 0.0
4.165 195.755 0.0
4.165 199.92000000000002 0.0
4.165 204.085 0.0
4.165 208.25 0.0
4.165 212.415 0.0
4.165 216.58 0.0
4.165 220.745 0.0
4.165 224.91 0.0
4.165 229.075 0.0
4.165 233.24 0.0
4.165 237.405 0.0
4.165 241.57 0.0
4.165 245.735 0.0
4.165 249.9 0.0
4.165 254.065 0.0
4.165 258.23 0.0
4.165 262.395 0.0
4.165 266.56 0.0
4.165 270.725 0.0
4.165 274.89 0.0
4.165 279.055 0.0
4.165 283.22 0.0
4.165 287.385 0.0
4.165 291.55 0.0
4.165 295.715 0.0
4.165 299.88 0.0
4.165 304.045 0.0
4.165 308.21 0.0
4.165 312.375 0.0
4.165 316.54 0.0
4.165 320.705 0.0
4.165 324.87 0.0
4.165 329.035 0.0
8.33 0.0 0.0
8.33 4.165 0.0
8.33 8.33 0.0
8.33 12.495000000000001 0.0
8.33 16.66 0.0
8.33 20.825 0.0
8.33 24.990000000000002 0.0
8.33 29.155 0.0
8.33 33.32 0.0
8.33 37.485 0.0
8.33 41.65 0.0
8.33 45.815 0.0
8.33 49.980000000000004 0.0
8.33 54.145 0.0
8.33 58.31 0.0
8.33 62.475 0.0
8.33 66.64 0.0
8.33 70.805 0.0
8.33 74.97 0.0
8.33 79.135 0.0
8.33 83.3 0.0
8.33 87.465 0.0
8.33 91.63 0.0
8.33 95.795 0.0
8.33 99.96000000000001 0.0
8.33 104.125 0.0
8.33 108.29 0.0
8.33 112.455 0.0
8.33 116.62 0.0
8.33 120.785 0.0
8.33 124.95 0.0
8.33 129.115 0.0
8.33 133.28 0.0
8.33 137.445 0.0
8.33 141.61 0.0
8.33 145.775 0.0
8.33 149.94 0.0
8.33 154.105 0.0
8.33 158.27 0.0
8.33 162.435 0.0
8.33 166.6 0.0
8.33 170.76500000000001 0.0
8.33 174.93 0.0
8.33 179.095 0.0
8.33 183.26 0.0
8.33 187.425 0.0
8.33 191.59 0.0
8.33 195.755 0.0
8.33 199.92000000000002 0.0
8.33 204.085 0.0
8.33 208.25 0.0
8.33 212.415 0.0
8.33 216.58 0.0
8.33 220.745 0.0
8.33 224.91 0.0
8.33 229.075 0.0
8.33 233.24 0.0
8.33 237.405 0.0
8.33 241.57 0.0
8.33 245.735 0.0
8.33 249.9 0.0
8.33 254.065 0.0
8.33 258.23 0.0
8.33 262.395 0.0
8.33 266.56 0.0
8.33 270.725 0.0
8.33 274.89 0.0
8.33 279.055 0.0
8.33 283.22 0.0
8.33 287.385 0.0
8.33 291.55 0.0
8.33 295.715 0.0
8.33 299.88 0.0
8.33 304.045 0.0
8.33 308.21 0.0
8.33 312.375 0.0
8.33 316.54 0.0
8.33 320.705 0.0
8.33 324.87 0.0
8.33 329.035 0.0
12.495000000000001 0.0 0.0
12.495000000000001 4.165 0.0
12.495000000000001 8.33 0.0
12.495000000000001 12.495000000000001 0.0
12.495000000000001 16.66 0.0
12.495000000000001 20.825 0.0
12.495000000000001 24.990000000000002 0.0
12.495000000000001 29.155 0.0
12.495000000000001 33.32 0.0
12.495000000000001 37.485 0.0
12.495000000000001 41.65 0.0
12.495000000000001 45.815 0.0
12.495000000000001 49.980000000000004 0.0
12.495000000000001 54.145 0.0
12.495000000000001 58.31 0.0
12.495000000000001 62.475 0.0
12.495000000000001 66.64 0.0
12.495000000000001 70.805 0.0
12.495000000000001 74.97 0.0
12.495000000000001 79.135 0.0
12.495000000000001 83.3 0.0
12.495000000000001 87.465 0.0
12.495000000000001 91.63 0.0
12.495000000000001 95.795 0.0
12.495000000000001 99.96000000000001 0.0
12.495000000000001 104.125 0.0
12.495000000000001 108.29 0.0
12.495000000000001 112.455 0.0
12.495000000000001 116.62 0.0
12.495000000000001 120.785 0.0
12.495000000000001 124.95 0.0
12.495000000000001 129.115 0.0
12.495000000000001 133.28 0.0
12.495000000000001 137.445 0.0
12.495000000000001 141.61 0.0
12.495000000000001 145.775 0.0
12.495000000000001 149.94 0.0
12.495000000000001 154.105 0.0
12.495000000000001 158.27 0.0
12.495000000000001 162.435 0.0
12.495000000000001 166.6 0.0
12.495000000000001 170.76500000000001 0.0
12.495000000000001 174.93 0.0
12.495000000000001 179.095 0.0
12.495000000000001 183.26 0.0
12.495000000000001 187.425 0.0
12.495000000000001 191.59 0.0
12.495000000000001 195.755 0.0
12.495000000000001 199.92000000000002 0.0
12.495000000000001 204.085 0.0
12.495000000000001 208.25 0.0
12.495000000000001 212.415 0.0
12.495000000000001 216.58 0.0
12.495000000000001 220.745 0.0
12.495000000000001 224.91 0.0
12.495000000000001 229.075 0.0
12.495000000000001 233.24 0.0
12.495000000000001 237.405 0.0
12.495000000000001 241.57 0.0
12.495000000000001 245.735 0.0
12.495000000000001 249.9 0.0
12.495000000000001 254.065 0.0
12.495000000000001 258.23 0.0
12.495000000000001 262.395 0.0
12.495000000000001 266.56 0.0
12.495000000000001 270.725 0.0
12.495000000000001 274.89 0.0
12.495000000000001 279.055 0.0
12.495000000000001 283.22 0.0
12.495000000000001 287.385 0.0
12.495000000000001 291.55 0.0
12.495000000000001 295.715 0.0
12.495000000000001 299.88 0.0
12.495000000000001 304.045 0.0
12.495000000000001 308.21 0.0
12.495000000000001 312.375 0.0
12.495000000000001 316.54 0.0
12.495000000000001 320.705 0.0
12.495000000000001 324.87 0.0
12.495000000000001 329.035 0.0
16.66 0.0 0.0
16.66 4.165 0.0
16.66 8.33 0.0
16.66 12.495000000000001 0.0
16.66 16.66 0.0
16.66 20.825 0.0
16.66 24.990000000000002 0.0
16.66 29.155 0.0
16.66 33.32 0.0
16.66 37.485 0.0
16.66 41.65 0.0
16.66 45.815 0.0
16.66 49.980000000000004 0.0
16.66 54.145 0.0
16.66 58.31 0.0
16.66 62.475 0.0
16.66 66.64 0.0
16.66 70.805 0.0
16.66 74.97 0.0
16.66 79.135 0.0
16.66 83.3 0.0
16.66 87.465 0.0
16.66 91.63 0.0
16.66 95.795 0.0
16.66 99.96000000000001 0.0
16.66 104.125 0.0
16.66 108.29 0.0
16.66 112.455 0.0
16.66 116.62 0.0
16.66 120.785 0.0
16.66 124.95 0.0
16.66 129.115 0.0
16.66 133.28 0.0
16.66 137.445 0.0
16.66 141.61 0.0
16.66 145.775 0.0
16.66 149.94 0.0
16.66 154.105 0.0
16.66 158.27 0.0
16.66 162.435 0.0
16.66 166.6 0.0
16.66 170.76500000000001 0.0
16.66 174.93 0.0
16.66 179.095 0.0
16.66 183.26 0.0
16.66 187.425 0.0
16.66 191.59 0.0
16.66 195.755 0.0
16.66 199.92000000000002 0.0
16.66 204.085 0.0
16.66 208.25 0.0
16.66 212.415 0.0
16.66 216.58 0.0
16.66 220.745 0.0
16.66 224.91 0.0
16.66 229.075 0.0
16.66 233.24 0.0
16.66 237.405 0.0
16.66 241.57 0.0
16.66 245.735 0.0
16.66 249.9 0.0
16.66 254.065 0.0
16.66 258.23 0.0
16.66 262.395 0.0
16.66 266.56 0.0
16.66 270.725 0.0
16.66 274.89 0.0
16.66 279.055 0.0
16.66 283.22 0.0
16.66 287.385 0.0
16.66 291.55 0.0
16.66 295.715 0.0
16.66 299.88 0.0
16.66 304.045 0.0
16.66 308.21 0.0
16.66 312.375 0.0
16.66 316.54 0.0
16.66 320.705 0.0
16.66 324.87 0.0
16.66 329.035 0.0
20.825 0.0 0.0
20.825 4.165 0.0
20.825 8.33 0.0
20.825 12.495000000000001 0.0
20.825 16.66 0.0
20.825 20.825 0.0
20.825 24.990000000000002 0.0
20.825 29.155 0.0
20.825 33.32 0.0
20.825 37.485 0.0
20.825 41.65 0.0
20.825 45.815 0.0
20.825 49.980000000000004 0.0
20.825 54.145 0.0
20.825 58.31 0.0
20.825 62.475 0.0
20.825 66.64 0.0
20.825 70.805 0.0
20.825 74.97 0.0
20.825 79.135 0.0
20.825 83.3 0.0
20.825 87.465 0.0
20.825 91.63 0.0
20.825 95.795 0.0
20.825 99.96000000000001 0.0
20.825 104.125 0.0
20.825 108.29 0.0
20.825 112.455 0.0
20.825 116.62 0.0
20.825 120.785 0.0
20.825 124.95 0.0
20.825 129.115 0.0
20.825 133.28 0.0
20.825 137.445 0.0
20.825 141.61 0.0
20.825 145.775 0.0
20.825 149.94 0.0
20.825 154.105 0.0
20.825 158.27 0.0
20.825 162.435 0.0
20.825 166.6 0.0
20.825 170.76500000000001 0.0
20.825 174.93 0.0
20.825 179.095 0.0
20.825 183.26 0.0
20.825 187.425 0.0
20.825 191.59 0.0
20.825 195.755 0.0
20.825 199.92000000000002 0.0
20.825 204.085 0.0
20.825 208.25 0.0
20.825 212.415 0.0
20.825 216.58 0.0
20.825 220.745 0.0
20.825 224.91 0.0
20.825 229.075 0.0
20.825 233.24 0.0
20.825 237.405 0.0
20.825 241.57 0.0
20.825 245.735 0.0
20.825 249.9 0.0
20.825 254.065 0.0
20.825 258.23 0.0
20.825 262.395 0.0
20.825 266.56 0.0
20.825 270.725 0.0
20.825 274.89 0.0
20.825 279.055 0.0
20.825 283.22 0.0
20.825 287.385 0.0
20.825 291.55 0.0
20.825 295.715 0.0
20.825 299.88 0.0
20.825 304.045 0.0
20.825 308.21 0.0
20.825 312.375 0.0
20.825 316.54 0.0
20.825 320.705 0.0
20.825 324.87 0.0
20.825 329.035 0.0
24.990000000000002 0.0 0.0
24.990000000000002 4.165 0.0
24.990000000000002 8.33 0.0
24.990000000000002 12.495000000000001 0.0
24.990000000000002 16.66 0.0
24.990000000000002 20.825 0.0
24.990000000000002 24.990000000000002 0.0
24.990000000000002 29.155 0.0
24.990000000000002 33.32 0.0
24.990000000000002 37.485 0.0
24.990000000000002 41.65 0.0
24.990000000000002 45.815 0.0
[...]
POINT_DATA 6400
VECTORS vector float
0.0 0.0 -0.2
-0.17616162298460072 0.0 -0.09469468088246245
0.16681568672263425 0.0 -0.11032917412568605
-0.01819604078071407 0.0 -0.19917054024103714
-0.1840463694731741 0.0 -0.0782747333674405
0.15608608146766592 0.0 -0.12504853126714113
-0.03624115272542764 0.0 -0.19668904099906592
-0.19040452538913535 0.0 -0.06120552843770008
0.1440618049775814 0.0 -0.138730661162561
-0.05398565889209933 0.0 -0.1925760853117175
-0.19518335238774953 0.0 -0.043628648279308346
0.1308425937871723 0.0 -0.15126207605029435
-0.07128237574265045 0.0 -0.1868657884913223
-0.19834321202211258 0.0 -0.025689886040060513
0.1165380959337151 0.0 -0.16253883288661888
-0.08798783397118326 0.0 -0.17960551515212303
-0.19985789452811786 0.0 -0.007538036533986882
0.10126696147062615 0.0 -0.172467395511461
-0.10396346852414202 0.0 -0.17085548633985895
0.19971483622390196 0.0 -0.010676337951751946
0.08515585831301424 0.0 -0.18096541049320408
-0.11907676794167105 0.0 -0.16068828002242552
0.19791522372053025 0.0 -0.028802156510450212
0.06833842157829643 0.0 -0.18796239021726402
-0.13320237348685082 0.0 -0.14918822908483598
0.19447398407953523 0.0 -0.04668907277118148
0.0509541451366763 0.0 -0.19340029755248705
-0.14622311894597323 0.0 -0.13645072182187887
0.18941966099894877 0.0 -0.06418872196144221
0.0331472245656239 0.0 -0.1972340272457978
-0.15803100247513835 0.0 -0.1225814107305949
0.18279417805481188 0.0 -0.08115595153324084
0.015065361105586584 0.0 -0.1994317800521228
-0.1685280824320867 0.0 -0.10769533616533172
0.17465249096198365 0.0 -0.09745002514506722
-0.0031414634623640014 0.0 -0.19997532649633212
-0.17762728976270906 0.0 -0.09191597212429731
0.16506213173859952 0.0 -0.11293579001321606
-0.02132223085505176 0.0 -0.19886015807939983
-0.18525315020381344 0.0 -0.07537420208243234
0.15410264855515743 0.0 -0.12748479794973844
-0.039326138923083696 0.0 -0.19609552467458893
-0.19134241031176613 0.0 -0.05820723336565425
0.14186494591445437 0.0 -0.14097637078847267
-0.05700385249399484 0.0 -0.1917043578034753
-0.1958445621243532 0.0 -0.04055745907130248
0.12845053063531653 0.0 -0.1532986013618703
-0.07420874204741106 0.0 -0.18572308042820315
-0.19872226210400187 0.0 -0.022571276974694958
0.11397066989438445 0.0 -0.16434928172591826
-0.0907980999479101 0.0 -0.17820130483767324
-0.19995164088739686 0.0 -0.004397875218499868
0.09854546830965807 0.0 -0.17403675093390528
-0.10663432414743834 0.0 -0.16920142113356806
0.19952250127224497 0.0 -0.013812005142882286
0.08230287172102158 0.0 -0.18228065532708915
-0.1215860595389216 0.0 -0.1587980797295667
0.19743840279896369 0.0 -0.031907320479698346
0.06537760593098839 0.0 -0.189012615035961
-0.13552928749402085 0.0 -0.14707757215620282
0.193716632225726 0.0 -0.049737977432971925
0.04791005920838298 0.0 -0.19417679116374653
-0.14834835454774908 0.0 -0.1341371153073426
0.18838806014175832 0.0 -0.06715607787851563
0.030045117824151497 0.0 -0.1977303489475828
-0.15993693169741835 0.0 -0.12008404506517655
0.18149688490822305 0.0 -0.08401714568236197
0.011930964278032898 0.0 -0.19964381305564244
-0.17019889635893928 0.0 -0.10503492599225771
0.17310026605060413 0.0 -0.10018132507214138
-0.006282151815625391 0.0 -0.19990131207314632
-0.17904912966496245 0.0 -0.08911458447537911
0.16326785014343648 0.0 -0.11551454068445402
-0.02444315998797894 0.0 -0.19850071014936463
-0.18641422249164274 0.0 -0.07245507334090774
0.15208119312000679 0.0 -0.12988960966603608
-0.042401421984410485 0.0 -0.1954536247136388
-0.1922330843577704 0.0 -0.05519457652974918
0.1396330837986942 0.0 -0.14318729660436655
-0.0600079812482561 0.0 -0.19078533011347845
0.0 0.17616162298460072 -0.09469468088246245
-0.10328350096606323 0.10328350096606323 0.1366200455877044
0.11802211342168074 0.10697271538281519 0.12094469358804937
-0.03788766642520048 0.17439448300449534 -0.09028338180666212
-0.0866318464248043 0.10031493743711205 0.14977261602848976
0.13039269963073566 0.11144161357218577 0.10285188694154512
-0.07240754849902299 0.16944882659880112 -0.0777447238380269
-0.06847321966711366 0.09801436233672653 0.16032655102678436
0.13987424620042863 0.11674904556473538 0.08249154871612738
-0.1010983602030437 0.16221844676033187 -0.0588582797482308
-0.04917879031417522 0.09633857072160823 0.1682270084574771
0.14586088706150008 0.1229409420040118 0.060084327447334676
-0.1227784134822312 0.15376126433494644 -0.03581807885558613
-0.029095832735691607 0.09525508288976657 0.17343558372225798
0.14764631020779875 0.13002726591044697 0.035964944068862276
-0.1373515658441546 0.14498671412482098 -0.01064894771544624
-0.008556333213883308 0.09474254157587637 0.17592793973009613
0.14442373843069106 0.1379433237548838 0.010650033293780344
-0.14537413864161453 0.1365256813950642 0.015069775506690792
0.012116069852127234 0.09479076211592324 0.17569266424304922
0.13532699040151494 0.1464910892031552 -0.015065405833946936
-0.14767213070976423 0.1287431670480484 0.040226095386908044
0.032600097790140684 0.09540070472711025 0.17273082863705597
0.11955563398269771 0.15526409338865152 -0.03999389562414903
-0.14510739747076204 0.1218091516337059 0.06408099388694848
0.05257111786576142 0.09658447845918156 0.16705602679075102
0.09663487379768007 0.1635814726990872 -0.0624724175593056
-0.13847073012412983 0.11577185424877452 0.08615529387501918
0.07169504020348373 0.09836536697961228 0.15869491418815873
0.06681908308851948 0.17049371987334894 -0.08041829156950274
-0.1284504515128633 0.1106128577229369 0.10613801021550606
0.08962114228340215 0.10077774330864314 0.14768851448042747
0.03150919766996872 0.17494451105696407 -0.09166017953961586
-0.11563649231612845 0.10628271050308047 0.12382320902375435
0.10597309983280088 0.10386656906078383 0.13409488410587725
-0.006632099734377315 0.1761081718610163 -0.09456176318620557
-0.10053715053947661 0.10272183895142611 0.13907014476097987
0.1203374993554187 0.1076858960928192 0.11799421185622264
-0.0441636399919596 0.17374860532126943 -0.08866225268723066
-0.08359783643871016 0.09987196525828143 0.1517794198770548
0.1322492712866105 0.11229532395884292 0.09949819325565176
-0.07781945927621807 0.1683356518883613 -0.07488150680426696
-0.06521769234389811 0.09768190429508267 0.1618792703795732
0.141174116621083 0.11775261039375284 0.0787666905596135
-0.10535076163296096 0.1608193766424708 -0.05512118576085034
-0.045763058783107324 0.0961102432802872 0.16931793640195913
0.14648974263843356 0.12409949334462406 0.05603633690145271
-0.12578838917617116 0.15224971743972093 -0.03158013122184977
-0.02557801604396533 0.09512640643199854 0.17405956421463567
0.14747178825003357 0.13133634404975686 0.031667592298455005
-0.1391808205632446 0.14349231426723794 -0.006217309190809969
-0.004992651401587819 0.09471096376035197 0.17608210237150035
0.1432986057682898 0.13938024640388016 0.006217434941993408
-0.1461543220939014 0.1351286765917222 0.019471900160022267
0.01567021469310946 0.09485565391195522 0.17537630767126794
0.13310327226301175 0.1480028402895234 -0.019459655164272473
-0.1475535932795779 0.1274845770894966 0.04444794387367211
0.036089135300264856 0.09556335767841101 0.17194539535127792
0.1161185915435252 0.15675407632418104 -0.044097984689788094
-0.14423312009159758 0.12070417127476292 0.06802433465691145
0.05593830356128785 0.09684810956631185 0.1658051563375424
0.09196357248804449 0.16490305215960055 -0.06595213964447434
-0.13696687099345237 0.11482084169502726 0.08975661848971615
0.07488131444539847 0.09873511780989024 0.1569846019773801
0.0610640488392178 0.1714649037871624 -0.0828913065925539
-0.12642535353153897 0.10980876206453782 0.10935568461803485
0.09256373244942147 0.10126063520301581 0.14552745168288245
0.025044508578011437 0.1753953198272895 -0.09278606777296222
-0.11318308508608393 0.10561556867846858 0.12662914713098236
0.10860373864836029 0.10447133791362469 0.13149512350705597
-0.01324560867437665 0.17594816252826107 -0.09416367640323901
-0.09773621429548296 0.10218129443720761 0.14144474356554973
0.12258014304555594 0.10842256609363408 0.11497241274585218
-0.05032173757430289 0.17301075487771245 -0.08680438597298579
-0.08052107349049893 0.09944858304258747 0.15370860761440544
0.13401726461083094 0.11317427324936287 0.09607786769443355
-0.08304605145602195 0.167159754805438 -0.07183988941353962
-0.06193027697055821 0.09736780286043321 0.1633528443599369
0.14236694812207568 0.11878271394197007 0.07498212420961628
-0.10938979859150277 0.15938950276015382 -0.05127239387800591
0.0 -0.16681568672263425 -0.11032917412568605
-0.10697271538281519 -0.11802211342168074 0.12094469358804937
0.12118949032598006 -0.12118949032598006 0.10308353345252759
-0.032674745955881206 -0.16593479827198993 -0.10676143357576579
-0.09033987614262019 -0.11541384078377248 0.13608215215109606
0.13247617007829543 -0.12491720142291861 0.08273909082200828
-0.06328636319199403 -0.1634011950541385 -0.09640998749512635
-0.07177681135106365 -0.1133557351841234 0.14831913785193304
0.14028995561729374 -0.12919107882067207 0.060236147835404034
-0.09010317275858769 -0.15950950905780314 -0.08023798837816618
-0.051745200919677325 -0.11183630293432317 0.15752801505689246
0.14406600045009813 -0.13397061554396625 0.036011965859740674
-0.11193411325923948 -0.15465991052776362 -0.059590824498507236
-0.03068793094450315 -0.11084480490899065 0.16362053697208434
0.14323765003584402 -0.1391744094669901 0.010651730456768621
-0.12816958661268926 -0.14926911000677898 -0.03593452191579112
-0.00903475256854094 -0.1103732859554083 0.16654161940317178
0.13727902177275955 -0.14466272666906746 -0.015072016911644379
-0.13869240161935603 -0.1437044556929153 -0.010651157076026624
0.012792167665484903 -0.11041771531925898 0.1662657168212774
0.12577993208585428 -0.15022025948306864 -0.04016568591867198
-0.14373278081867255 -0.13825213365326497 0.015074324477442233
0.03437286423530019 -0.11097847942062783 0.16279521894007487
0.10855936321390264 -0.15554592552492805 -0.06340606998691455
-0.14372786434542822 -0.1331133781632623 0.04028808216664707
0.05528425084909483 -0.1120603367653878 0.15616059852626793
0.0858096881711732 -0.160260657790002 -0.08338596393087927
-0.13921488806541737 -0.12841656736296433 0.06425262771005211
0.07509471279919634 -0.11367182479417795 0.1464223355829565
0.058237121687242654 -0.16394498792780154 -0.09864318826426027
-0.13076248127090057 -0.12423486648874907 0.08641106086838696
0.09335852692635488 -0.11582398734748817 0.13367493933071362
0.02713342898653521 -0.16621033492222695 -0.10787910639449046
-0.11893265737617001 -0.1206033029875395 0.10634785525782034
0.109610211478516 -0.11852815682930924 0.1180537063301347
-0.005693104682488986 -0.16678922741673938 -0.11022223993732586
-0.10426346688823747 -0.11753270795571898 0.12375456368571257
0.12335929309701535 -0.12179237040940215 0.09974519194760044
-0.03815389304097686 -0.16560966983704856 -0.10544058849551947
-0.08726390491547456 -0.11502005433683296 0.1384030274208444
0.13408667898746937 -0.12561583408545554 0.07900268821455791
-0.06822144041941514 -0.1628167750852964 -0.09400283409517071
-0.0684153003922481 -0.11305565624345298 0.15012583143350333
0.14124500656501468 -0.12998071903064032 0.056168147563603305
-0.09424700418349768 -0.1587298537893895 -0.07695671327723665
-0.048175693225100305 -0.11162795578192866 0.15880271430371964
0.14426717635842076 -0.1348406046802921 0.031701627009059166
-0.11514132928621551 -0.15375793790168424 -0.05568636118858103
-0.026985301542349467 -0.11072657793160848 0.16435150878596738
0.14258974880538167 -0.1401053268120159 0.006217791771711747
-0.13038859192905927 -0.14831299671154072 -0.03165549085387529
-0.005272178000089066 -0.11034418315540623 0.16672242015668304
0.13570040370452238 -0.14562326697061528 -0.01947471569072498
-0.13994232241684984 -0.14274973305795563 -0.006217725344598161
0.016542270861499314 -0.11047748283907195 0.16589478310148079
0.12321930106185715 -0.1511647136512008 -0.044342228096678614
-0.14407770463396175 -0.13733935571820285 0.019481180619198034
0.03803792170774542 -0.11112763492666584 0.16187577109549506
0.10501899589549298 -0.15641388845282697 -0.0671245558657116
-0.1432556537182084 -0.13226941060055095 0.044526629079143586
0.05879060799365126 -0.1123001083544135 0.15470084057730205
0.08137138129294855 -0.16098110927618955 -0.08639317544045423
-0.13802273733246995 -0.1276574588961303 0.06821508020544151
0.07836668538572077 -0.11400398565486938 0.1444359853930446
0.053081612212806044 -0.16444630347176165 -0.10069635405198424
-0.12894845496953364 -0.12356894219078372 0.09001673448210015
0.09631742462908408 -0.11625055046099547 0.13118217573411506
0.021540186637800517 -0.1664352510716561 -0.1087902916639326
-0.11659149173025139 -0.12003382358783583 0.10953677579242066
0.11217338386916015 -0.11905086877525102 0.11508267721599111
-0.011375181664150308 -0.166709951046623 -0.10990176278904783
-0.10148501193628803 -0.11705990338575523 0.12648229667273256
0.12543934180278365 -0.12241191490881394 0.09633428577843775
-0.043560938395809656 -0.16523614968413147 -0.10392044786104311
-0.08413302436983401 -0.11464256957357366 0.14063682111009637
0.13559114425050667 -0.1263306288347112 0.07520381518955495
-0.07303496123309182 -0.16219367255357828 -0.09142815223585898
-0.0650124826391669 -0.11277152823660593 0.15184188987322444
0.1420771027407244 -0.13078517808431198 0.052051263868002684
-0.09823688479484145 -0.15792389338792592 -0.07354969995182886
0.0 0.01819604078071407 -0.19917054024103714
-0.17439448300449534 0.03788766642520048 -0.09028338180666212
0.16593479827198993 0.032674745955881206 -0.10676143357576579
-0.018271183066607778 0.018271183066607778 -0.1983237951903226
-0.1806909586487665 0.04545582800044004 -0.07269487714677135
0.15572685257380775 0.028914969327741416 -0.12211908915575538
-0.03638692652313544 0.018499722373097667 -0.1957900708675449
-0.18391388582666002 0.057193754292690094 -0.05389394279550968
0.14401512347167533 0.026114925791805584 -0.1362998711016507
-0.05419271564804831 0.0188913135766581 -0.19158879884282942
-0.18142745002738514 0.07721300748162957 -0.0334997291362554
0.13097914239807737 0.023984183804865417 -0.14922876124889126
-0.07153580820341762 0.019463167829309604 -0.1857520208308162
-0.16275538186561722 0.11575981964284761 -0.01050475273542981
0.11677317758585992 0.02234189703858735 -0.16082557207489856
-0.08826590561763581 0.02024196591703687 -0.17832384226825118
-0.0765837885067911 0.1842295552104126 0.013942536531084801
0.10154270195830006 0.021070553013895224 -0.1710120214332796
-0.10423549403290254 0.021267083811858573 -0.1693595965094867
0.10128290339880025 0.1721493963508512 0.010313041023230704
0.08543158635736355 0.020091407888064836 -0.17971582952411216
-0.11929958428947499 0.02259590253551345 -0.1589246185364748
0.16832024200740253 0.10701240934573403 -0.014718708387304713
0.06858519733808663 0.019350691656463984 -0.18687327641616439
-0.13331432759741868 0.02431265050926797 -0.14709243720348888
0.1825155418727808 0.07284925159855044 -0.037162662934944586
0.051151531841739345 0.018811524359404436 -0.19243088977999104
-0.1461334142614767 0.02654358957394988 -0.1339420139045749
0.18365135411883007 0.05474095301790343 -0.05723292927163316
0.033281345869744614 0.01844904415506424 -0.19634659351988495
-0.15759978675209546 0.02948429298792552 -0.11955326713518209
0.17978845728733012 0.043921895586121404 -0.07580882345983038
0.015127741606831372 0.018247450290352293 -0.19859048817045108
-0.1675265721154653 0.03345157184749494 -0.10399923065183564
0.17307515620731978 0.03685360659365567 -0.0932030148914289
-0.003154543059681797 0.018198267116135394 -0.19914535377973144
-0.17565049795788812 0.03898977365841888 -0.08733098028312297
0.1642914114337973 0.0319402138617146 -0.10949043276724538
-0.02141000160172227 0.018299460291330488 -0.19800692307204887
-0.18150530744587012 0.047108904198554916 -0.06954548521788843
0.15380935523782654 0.028373718225694657 -0.12464996733001162
-0.03948328900025194 0.01855522967004952 -0.1951839474485909
-0.1840197632773612 0.05987951481417897 -0.050509112335918954
0.14185752172288174 0.02570590796266353 -0.1386205245497838
-0.057220139124223635 0.01897643902582089 -0.19069806092486571
-0.17992922491998461 0.08209589769783758 -0.029761344070451314
0.1286091962045179 0.023670091217407225 -0.15132548177153587
-0.07446818998586845 0.01958176583908329 -0.18458343134434335
-0.15549217012075087 0.1256341990614312 -0.006183288553202375
0.11421631842220213 0.022098828360587044 -0.1626845855979215
-0.0910776111944206 0.020399803960325244 -0.17688616886997766
-0.0469960402104922 0.19368473520360374 0.01666119904579843
0.09882372735728025 0.020882649945533745 -0.17262035176208582
-0.10690136541569387 0.021472579933140747 -0.1676634318606033
0.12100035240825809 0.15912558967940305 0.006161284465077547
0.08257540335975988 0.019947897889303012 -0.18106182405402557
-0.12179480214142475 0.02286134233351068 -0.15698211744667362
0.17259088759130953 0.0992882603842602 -0.018820915767074748
0.0656171219953288 0.01924417852577823 -0.18794694701941322
-0.13561399292320872 0.024656242834194982 -0.14491692314124363
0.18326747122683987 0.06893382211063713 -0.04075735711915655
0.04809736607337814 0.018736966027905016 -0.19322414311072153
-0.1482115578381994 0.0269930760992865 -0.13154736016306903
0.18325028500326448 0.052493794093101544 -0.06052879172702366
0.030167336198864525 0.018403131182811044 -0.19685338856451756
-0.1594271175230832 0.030083622338179728 -0.11695285317295512
0.17880381119131375 0.04249537595087998 -0.07888814946653522
0.011980473060248353 0.018228232879504244 -0.19880694100393786
-0.16906517551261757 0.03427407077335883 -0.10120402413694135
0.17169510725007942 0.0358818986485301 -0.09608995522821488
-0.006308288280047456 0.01820494882882002 -0.19906980016344988
-0.17684026024013233 0.04016632958155107 -0.08434564793839987
0.16259784177344164 0.031244922362644437 -0.11218599144800195
-0.02454340220216337 0.018332316732700058 -0.19763994427128037
-0.18222437621517465 0.048894569975686336 -0.06635960925053133
0.1518482851341218 0.027858772177689357 -0.12714553517358784
-0.042569645732573914 0.018615636432574672 -0.1945283612803371
-0.18394642585471258 0.06283025419538331 -0.04707516938918275
0.1396614257342336 0.025315450189894707 -0.14090356327490128
-0.0602330261061359 0.019067014241729525 -0.18975887735229474
0.0 0.1840463694731741 -0.0782747333674405
-0.10031493743711205 0.0866318464248043 0.14977261602848976
0.11541384078377248 0.09033987614262019 0.13608215215109606
-0.04545582800044004 0.1806909586487665 -0.07269487714677135
-0.08370157168095244 0.08370157168095244 0.1612082311678804
0.12862652786212006 0.09493724513453539 0.12017543765845158
-0.08496846183397289 0.17172140869944197 -0.05737698395565856
-0.06589801225529245 0.08146165864364119 0.1703568318319762
0.13950898273463097 0.10056103068027478 0.10210153203977533
-0.11517030603155519 0.15959107946531637 -0.035587750191505556
-0.04719770185414527 0.07984636940548302 0.17719180069193485
0.14750857521344024 0.1073709803391702 0.08193102476782754
-0.135585844231048 0.14663959010656935 -0.010644691518842569
-0.027874494242038278 0.07880909281421362 0.18169243093907694
0.1519128040274934 0.11553622592286106 0.059781941019056796
-0.14738325443954145 0.13435526779861293 0.015061152863323601
-0.008190399977421476 0.07832031346385296 0.18384462419971292
0.15178368903635653 0.12519851327796433 0.03587539568425708
-0.15217870849082132 0.12342213549298571 0.04010756976453079
0.011598794057343228 0.0783662468914796 0.18364149673905134
0.14589381336722557 0.13638783165509388 0.010646811616204161
-0.15144734203728927 0.11402478633670372 0.06373421915038557
0.031239027534437983 0.07894818499906821 0.18108370231485638
0.13272408546702227 0.14885474759666717 -0.015052616213638202
-0.1463634957795904 0.1061048176565206 0.08555404591984148
0.05047378165354363 0.08008255782032137 0.17617940089166295
0.11067716727931907 0.16179691224321646 -0.0396525387785768
-0.13782125260877268 0.09951147508921558 0.10536967616405257