# vtk DataFile Version 2.0
test
ASCII
DATASET UNSTRUCTURED_GRID
POINTS 6400 float
0.0 0.0 0.0
0.0 4.165 0.0
0.0 8.33 0.0
0.0 12.495000000000001 0.0
0.0 16.66 0.0
0.0 20.825 0.0
0.0 24.990000000000002 0.0
0.0 29.155 0.0
0.0 33.32 0.0
0.0 37.485 0.0
0.0 41.65 0.0
0.0 45.815 0.0
0.0 49.980000000000004 0.0
0.0 54.145 0.0
0.0 58.31 0.0
0.0 62.475 0.0
0.0 66.64 0.0
0.0 70.805 0.0
0.0 74.97 0.0
0.0 79.135 0.0
0.0 83.3 0.0
0.0 87.465 0.0
0.0 91.63 0.0
0.0 95.795 0.0
0.0 99.96000000000001 0.0
0.0 104.125 0.0
0.0 108.29 0.0
0.0 112.455 0.0
0.0 116.62 0.0
0.0 120.785 0.0
0.0 124.95 0.0
0.0 129.115 0.0
0.0 133.28 0.0
0.0 137.445 0.0
0.0 141.61 0.0
0.0 145.775 0.0
0.0 149.94 0.0
0.0 154.105 0.0
0.0 158.27 0.0
0.0 162.435 0.0
0.0 166.6 0.0
0.0 170.76500000000001 0.0
0.0 174.93 0.0
0.0 179.095 0.0
0.0 183.26 0.0
0.0 187.425 0.0
0.0 191.59 0.0
0.0 195.755 0.0
0.0 199.92000000000002 0.0
0.0 204.085 0.0
0.0 208.25 0.0
0.0 212.415 0.0
0.0 216.58 0.0
0.0 220.745 0.0
0.0 224.91 0.0
0.0 229.075 0.0
0.0 233.24 0.0
0.0 237.405 0.0
0.0 241.57 0.0
0.0 245.735 0.0
0.0 249.9 0.0
0.0 254.065 0.0
0.0 258.23 0.0
0.0 262.395 0.0
0.0 266.56 0.0
0.0 270.725 0.0
0.0 274.89 0.0
0.0 279.055 0.0
0.0 283.22 0.0
0.0 287.385 0.0
0.0 291.55 0.0
0.0 295.715 0.0
0.0 299.88 0.0
0.0 304.045 0.0
0.0 308.21 0.0
0.0 312.375 0.0
0.0 316.54 0.0
0.0 320.705 0.0
0.0 324.87 0.0
0.0 329.035 0.0
4.165 0.0 0.0
4.165 4.165 0.0
4.165 8.33 0.0
4.165 12.495000000000001 0.0
4.165 16.66 0.0
4.165 20.825 0.0
4.165 24.990000000000002 0.0
4.165 29.155 0.0
4.165 33.32 0.0
4.165 37.485 0.0
4.165 41.65 0.0
4.165 45.815 0.0
4.165 49.980000000000004 0.0
4.165 54.145 0.0
4.165 58.31 0.0
4.165 62.475 0.0
4.165 66.64 0.0
4.165 70.805 0.0
4.165 74.97 0.0
4.165 79.135 0.0
4.165 83.3 0.0
4.165 87.465 0.0
4.165 91.63 0.0
4.165 95.795 0.0
4.165 99.96000000000001 0.0
4.165 104.125 0.0
4.165 108.29 0.0
4.165 112.455 0.0
4.165 116.62 0.0
4.165 120.785 0.0
4.165 124.95 0.0
4.165 129.115 0.0
4.165 133.28 0.0
4.165 137.445 0.0
4.165 141.61 0.0
4.165 145.775 0.0
4.165 149.94 0.0
4.165 154.105 0.0
4.165 158.27 0.0
4.165 162.435 0.0
4.165 166.6 0.0
4.165 170.76500000000001 0.0
4.165 174.93 0.0
4.165 179.095 0.0
4.165 183.26 0.0
4.165 187.425 0.0
4.165 191.59 0.0
4.165 195.755 0.0
4.165 199.92000000000002 0.0
4.165 204.085 0.0
4.165 208.25 0.0
4.165 212.415 0.0
4.165 216.58 0.0
4.165 220.745 0.0
4.165 224.91 0.0
4.165 229.075 0.0
4.165 233.24 0.0
4.165 237.405 0.0
4.165 241.57 0.0
4.165 245.735 0.0
4.165 249.9 0.0
4.165 254.065 0.0
4.165 258.23 0.0
4.165 262.395 0.0
4.165 266.56 0.0
4.165 270.725 0.0
4.165 274.89 0.0
4.165 279.055 0.0
4.165 283.22 0.0
4.165 287.385 0.0
4.165 291.55 0.0
4.165 295.715 0.0
4.165 299.88 0.0
4.165 304.045 0.0
4.165 308.21 0.0
4.165 312.375 0.0
4.165 316.54 0.0
4.165 320.705 0.0
4.165 324.87 0.0
4.165 329.035 0.0
8.33 0.0 0.0
8.33 4.165 0.0
8.33 8.33 0.0
8.33 12.495000000000001 0.0
8.33 16.66 0.0
8.33 20.825 0.0
8.33 24.990000000000002 0.0
8.33 29.155 0.0
8.33 33.32 0.0
8.33 37.485 0.0
8.33 41.65 0.0
8.33 45.815 0.0
8.33 49.980000000000004 0.0
8.33 54.145 0.0
8.33 58.31 0.0
8.33 62.475 0.0
8.33 66.64 0.0
8.33 70.805 0.0
8.33 74.97 0.0
8.33 79.135 0.0
8.33 83.3 0.0
8.33 87.465 0.0
8.33 91.63 0.0
8.33 95.795 0.0
8.33 99.96000000000001 0.0
8.33 104.125 0.0
8.33 108.29 0.0
8.33 112.455 0.0
8.33 116.62 0.0
8.33 120.785 0.0
8.33 124.95 0.0
8.33 129.115 0.0
8.33 133.28 0.0
8.33 137.445 0.0
8.33 141.61 0.0
8.33 145.775 0.0
8.33 149.94 0.0
8.33 154.105 0.0
8.33 158.27 0.0
8.33 162.435 0.0
8.33 166.6 0.0
8.33 170.76500000000001 0.0
8.33 174.93 0.0
8.33 179.095 0.0
8.33 183.26 0.0
8.33 187.425 0.0
8.33 191.59 0.0
8.33 195.755 0.0
8.33 199.92000000000002 0.0
8.33 204.085 0.0
8.33 208.25 0.0
8.33 212.415 0.0
8.33 216.58 0.0
8.33 220.745 0.0
8.33 224.91 0.0
8.33 229.075 0.0
8.33 233.24 0.0
8.33 237.405 0.0
8.33 241.57 0.0
8.33 245.735 0.0
8.33 249.9 0.0
8.33 254.065 0.0
8.33 258.23 0.0
8.33 262.395 0.0
8.33 266.56 0.0
8.33 270.725 0.0
8.33 274.89 0.0
8.33 279.055 0.0
8.33 283.22 0.0
8.33 287.385 0.0
8.33 291.55 0.0
8.33 295.715 0.0
8.33 299.88 0.0
8.33 304.045 0.0
8.33 308.21 0.0
8.33 312.375 0.0
8.33 316.54 0.0
8.33 320.705 0.0
8.33 324.87 0.0
8.33 329.035 0.0
12.495000000000001 0.0 0.0
12.495000000000001 4.165 0.0
12.495000000000001 8.33 0.0
12.495000000000001 12.495000000000001 0.0
12.495000000000001 16.66 0.0
12.495000000000001 20.825 0.0
12.495000000000001 24.990000000000002 0.0
12.495000000000001 29.155 0.0
12.495000000000001 33.32 0.0
12.495000000000001 37.485 0.0
12.495000000000001 41.65 0.0
12.495000000000001 45.815 0.0
12.495000000000001 49.980000000000004 0.0
12.495000000000001 54.145 0.0
12.495000000000001 58.31 0.0
12.495000000000001 62.475 0.0
12.495000000000001 66.64 0.0
12.495000000000001 70.805 0.0
12.495000000000001 74.97 0.0
12.495000000000001 79.135 0.0
12.495000000000001 83.3 0.0
12.495000000000001 87.465 0.0
12.495000000000001 91.63 0.0
12.495000000000001 95.795 0.0
12.495000000000001 99.96000000000001 0.0
12.495000000000001 104.125 0.0
12.495000000000001 108.29 0.0
12.495000000000001 112.455 0.0
12.495000000000001 116.62 0.0
12.495000000000001 120.785 0.0
12.495000000000001 124.95 0.0
12.495000000000001 129.115 0.0
12.495000000000001 133.28 0.0
12.495000000000001 137.445 0.0
12.495000000000001 141.61 0.0
12.495000000000001 145.775 0.0
12.495000000000001 149.94 0.0
12.495000000000001 154.105 0.0
12.495000000000001 158.27 0.0
12.495000000000001 162.435 0.0
12.495000000000001 166.6 0.0
12.495000000000001 170.76500000000001 0.0
12.495000000000001 174.93 0.0
12.495000000000001 179.095 0.0
12.495000000000001 183.26 0.0
12.495000000000001 187.425 0.0
12.495000000000001 191.59 0.0
12.495000000000001 195.755 0.0
12.495000000000001 199.92000000000002 0.0
12.495000000000001 204.085 0.0
12.495000000000001 208.25 0.0
12.495000000000001 212.415 0.0
12.495000000000001 216.58 0.0
12.495000000000001 220.745 0.0
12.495000000000001 224.91 0.0
12.495000000000001 229.075 0.0
12.495000000000001 233.24 0.0
12.495000000000001 237.405 0.0
12.495000000000001 241.57 0.0
12.495000000000001 245.735 0.0
12.495000000000001 249.9 0.0
12.495000000000001 254.065 0.0
12.495000000000001 258.23 0.0
12.495000000000001 262.395 0.0
12.495000000000001 266.56 0.0
12.495000000000001 270.725 0.0
12.495000000000001 274.89 0.0
12.495000000000001 279.055 0.0
12.495000000000001 283.22 0.0
12.495000000000001 287.385 0.0
12.495000000000001 291.55 0.0
12.495000000000001 295.715 0.0
12.495000000000001 299.88 0.0
12.495000000000001 304.045 0.0
12.495000000000001 308.21 0.0
12.495000000000001 312.375 0.0
12.495000000000001 316.54 0.0
12.495000000000001 320.705 0.0
12.495000000000001 324.87 0.0
12.495000000000001 329.035 0.0
16.66 0.0 0.0
16.66 4.165 0.0
16.66 8.33 0.0
16.66 12.495000000000001 0.0
16.66 16.66 0.0
16.66 20.825 0.0
16.66 24.990000000000002 0.0
16.66 29.155 0.0
16.66 33.32 0.0
16.66 37.485 0.0
16.66 41.65 0.0
16.66 45.815 0.0
16.66 49.980000000000004 0.0
16.66 54.145 0.0
16.66 58.31 0.0
16.66 62.475 0.0
16.66 66.64 0.0
16.66 70.805 0.0
16.66 74.97 0.0
16.66 79.135 0.0
16.66 83.3 0.0
16.66 87.465 0.0
16.66 91.63 0.0
16.66 95.795 0.0
16.66 99.96000000000001 0.0
16.66 104.125 0.0
16.66 108.29 0.0
16.66 112.455 0.0
16.66 116.62 0.0
16.66 120.785 0.0
16.66 124.95 0.0
16.66 129.115 0.0
16.66 133.28 0.0
16.66 137.445 0.0
16.66 141.61 0.0
16.66 145.775 0.0
16.66 149.94 0.0
16.66 154.105 0.0
16.66 158.27 0.0
16.66 162.435 0.0
16.66 166.6 0.0
16.66 170.76500000000001 0.0
16.66 174.93 0.0
16.66 179.095 0.0
16.66 183.26 0.0
16.66 187.425 0.0
16.66 191.59 0.0
16.66 195.755 0.0
16.66 199.92000000000002 0.0
16.66 204.085 0.0
16.66 208.25 0.0
16.66 212.415 0.0
16.66 216.58 0.0
16.66 220.745 0.0
16.66 224.91 0.0
16.66 229.075 0.0
16.66 233.24 0.0
16.66 237.405 0.0
16.66 241.57 0.0
16.66 245.735 0.0
16.66 249.9 0.0
16.66 254.065 0.0
16.66 258.23 0.0
16.66 262.395 0.0
16.66 266.56 0.0
16.66 270.725 0.0
16.66 274.89 0.0
16.66 279.055 0.0
16.66 283.22 0.0
16.66 287.385 0.0
16.66 291.55 0.0
16.66 295.715 0.0
16.66 299.88 0.0
16.66 304.045 0.0
16.66 308.21 0.0
16.66 312.375 0.0
16.66 316.54 0.0
16.66 320.705 0.0
16.66 324.87 0.0
16.66 329.035 0.0
20.825 0.0 0.0
20.825 4.165 0.0
20.825 8.33 0.0
20.825 12.495000000000001 0.0
20.825 16.66 0.0
20.825 20.825 0.0
20.825 24.990000000000002 0.0
20.825 29.155 0.0
20.825 33.32 0.0
20.825 37.485 0.0
20.825 41.65 0.0
20.825 45.815 0.0
20.825 49.980000000000004 0.0
20.825 54.145 0.0
20.825 58.31 0.0
20.825 62.475 0.0
20.825 66.64 0.0
20.825 70.805 0.0
20.825 74.97 0.0
20.825 79.135 0.0
20.825 83.3 0.0
20.825 87.465 0.0
20.825 91.63 0.0
20.825 95.795 0.0
20.825 99.96000000000001 0.0
20.825 104.125 0.0
20.825 108.29 0.0
20.825 112.455 0.0
20.825 116.62 0.0
20.825 120.785 0.0
20.825 124.95 0.0
20.825 129.115 0.0
20.825 133.28 0.0
20.825 137.445 0.0
20.825 141.61 0.0
20.825 145.775 0.0
20.825 149.94 0.0
20.825 154.105 0.0
20.825 158.27 0.0
20.825 162.435 0.0
20.825 166.6 0.0
20.825 170.76500000000001 0.0
20.825 174.93 0.0
20.825 179.095 0.0
20.825 183.26 0.0
20.825 187.425 0.0
20.825 191.59 0.0
20.825 195.755 0.0
20.825 199.92000000000002 0.0
20.825 204.085 0.0
20.825 208.25 0.0
20.825 212.415 0.0
20.825 216.58 0.0
20.825 220.745 0.0
20.825 224.91 0.0
20.825 229.075 0.0
20.825 233.24 0.0
20.825 237.405 0.0
20.825 241.57 0.0
20.825 245.735 0.0
20.825 249.9 0.0
20.825 254.065 0.0
20.825 258.23 0.0
20.825 262.395 0.0
20.825 266.56 0.0
20.825 270.725 0.0
20.825 274.89 0.0
20.825 279.055 0.0
20.825 283.22 0.0
20.825 287.385 0.0
20.825 291.55 0.0
20.825 295.715 0.0
20.825 299.88 0.0
20.825 304.045 0.0
20.825 308.21 0.0
20.825 312.375 0.0
20.825 316.54 0.0
20.825 320.705 0.0
20.825 324.87 0.0
20.825 329.035 0.0
24.990000000000002 0.0 0.0
24.990000000000002 4.165 0.0
24.990000000000002 8.33 0.0
24.990000000000002 12.495000000000001 0.0
24.990000000000002 16.66 0.0
24.990000000000002 20.825 0.0
24.990000000000002 24.990000000000002 0.0
24.990000000000002 29.155 0.0
24.990000000000002 33.32 0.0
24.990000000000002 37.485 0.0
24.990000000000002 41.65 0.0
24.990000000000002 45.815 0.0
[...]
POINT_DATA 6400
VECTORS vector float
0.0 0.0 -0.15
-0.13144600200657952 0.0 -0.07226305111525727
0.12664918882530227 0.0 -0.08037401924684953
-0.009418577929397 0.0 -0.14970400926424074
-0.13572405786990296 0.0 -0.06386689373476082
0.12135254915624205 0.0 -0.08816778784387105
-0.018799985034645625 0.0 -0.14881720519717168
-0.13946647288323774 0.0 -0.05521868290270157
0.11557698641636828 0.0 -0.09561359846230358
-0.028107197187858743 0.0 -0.14734308760930329
-0.1426584774442731 0.0 -0.04635254915624192
0.10934529411321166 0.0 -0.10268206588930336
-0.037303483074728194 0.0 -0.14528747416929466
-0.14528747416929463 0.0 -0.037303483074728354
0.10268206588930309 0.0 -0.10934529411321191
-0.04635254915624228 0.0 -0.14265847744427299
-0.14734308760930337 0.0 -0.028107197187858368
0.0956135984623035 0.0 -0.11557698641636835
-0.05521868290270179 0.0 -0.13946647288323769
-0.1488172051971717 0.0 -0.018799985034645385
0.08816778784387064 0.0 -0.12135254915624234
-0.06386689373476093 0.0 -0.1357240578699029
-0.14970400926424074 0.0 -0.009418577929396871
0.08037401924684966 0.0 -0.12664918882530213
-0.07226305111525726 0.0 -0.13144600200657955
0.15 0.0 0.0
0.07226305111525752 0.0 -0.1314460020065794
-0.08037401924684985 0.0 -0.12664918882530204
0.14970400926424068 0.0 -0.009418577929397575
0.06386689373476073 0.0 -0.135724057869903
-0.08816778784387125 0.0 -0.12135254915624191
0.14881720519717168 0.0 -0.018799985034645625
0.05521868290270108 0.0 -0.13946647288323794
-0.09561359846230368 0.0 -0.11557698641636821
0.1473430876093033 0.0 -0.028107197187858597
0.046352549156242574 0.0 -0.1426584774442729
-0.10268206588930344 0.0 -0.1093452941132116
0.14528747416929472 0.0 -0.03730348307472803
0.03730348307472773 0.0 -0.1452874741692948
-0.10934529411321181 0.0 -0.10268206588930319
0.14265847744427276 0.0 -0.04635254915624289
0.02810719718785826 0.0 -0.14734308760930337
-0.11557698641636842 0.0 -0.09561359846230341
0.13946647288323782 0.0 -0.055218682902701405
0.01879998503464527 0.0 -0.1488172051971717
-0.12135254915624209 0.0 -0.08816778784387097
0.1357240578699031 0.0 -0.06386689373476054
0.009418577929396712 0.0 -0.14970400926424074
-0.1266491888253022 0.0 -0.08037401924684957
0.13144600200657977 0.0 -0.07226305111525688
-2.2062211803750005e-16 0.0 -0.15
-0.13144600200657947 0.0 -0.07226305111525742
0.12664918882530252 0.0 -0.08037401924684903
-0.00941857792939609 0.0 -0.1497040092642408
-0.13572405786990327 0.0 -0.06386689373476014
0.12135254915624122 0.0 -0.0881677878438722
-0.01879998503464677 0.0 -0.14881720519717154
-0.139466472883238 0.0 -0.05521868290270099
0.11557698641636813 0.0 -0.09561359846230376
-0.028107197187859746 0.0 -0.1473430876093031
-0.14265847744427324 0.0 -0.046352549156241464
0.10934529411321152 0.0 -0.10268206588930352
-0.03730348307472816 0.0 -0.14528747416929466
-0.14528747416929455 0.0 -0.03730348307472866
0.10268206588930234 0.0 -0.10934529411321262
-0.04635254915624299 0.0 -0.14265847744427274
-0.1473430876093034 0.0 -0.028107197187858143
0.09561359846230333 0.0 -0.11557698641636849
-0.05521868290270149 0.0 -0.13946647288323777
-0.14881720519717162 0.0 -0.018799985034646208
0.08816778784387175 0.0 -0.12135254915624152
-0.0638668937347616 0.0 -0.1357240578699026
-0.14970400926424074 0.0 -0.009418577929396559
0.08037401924684946 0.0 -0.12664918882530227
-0.07226305111525698 0.0 -0.1314460020065797
0.15 0.0 0.0
0.0722630511152564 0.0 -0.13144600200658002
-0.08037401924685003 0.0 -0.12664918882530193
0.14970400926424074 0.0 -0.009418577929397225
0.06386689373476101 0.0 -0.13572405786990288
0.0 0.13144600200657952 -0.07226305111525727
-0.07893680109501444 0.07893680109501444 0.10018963452260046
0.08659986214808531 0.08080956659836301 0.09203411227429399
-0.01942382797449624 0.1308518093136095 -0.0707143472441905
-0.07055911457376145 0.07731863325113376 0.10743947274043875
0.09343543686982901 0.0829500110971262 0.08300069153887113
-0.03803282655186029 0.12912538547344804 -0.06618261804136764
-0.06157130283331491 0.07594272175204375 0.11376149471723676
0.09932045542240127 0.08537119261652064 0.0731245964496197
-0.055119510396279776 0.12642172745114647 -0.058986323855131445
-0.05207114898612569 0.07479793858469527 0.11913800328503435
0.10411966510404518 0.08808495638158773 0.06245106722767246
-0.07015820945641812 0.12296021521315159 -0.04958438383810775
-0.04215113953626389 0.07387465029417785 0.12355491685767644
0.1076837197935817 0.09110013705428491 0.05103901958411707
-0.08283088466114141 0.11898295974707214 -0.03849804976981693
-0.03189967598515317 0.07316487599728674 0.12700122673558667
0.10984770645830665 0.09441992252907039 0.038966134212339305
-0.09300979860496573 0.11471930803206346 -0.026242288926621057
-0.02140210681800383 0.07266236941528387 0.12946864444608808
0.11043077662436439 0.09803811544453986 0.026335745560412932
-0.10071510026700295 0.11036354335562107 -0.01327994262786905
-0.01074161529430119 0.07236265673561346 0.130951378805391
0.10923798546998616 0.10193404519296942 0.013285818042437671
-0.1060660171779821 0.10606601717798213 -4.184047365172767e-17
1.2588179632868758e-16 0.07226305111525728 0.13144600200657955
0.10606601717798227 0.10606601717798202 3.905110874161245e-16
-0.10923798546998618 0.10193404519296931 0.013285818042437978
0.010741615294302048 0.07236265673561347 0.13095137880539093
0.10071510026700278 0.11036354335562115 -0.01327994262786935
-0.11043077662436442 0.09803811544453955 0.026335745560413962
0.02140210681800408 0.07266236941528388 0.12946864444608802
0.09300979860496501 0.1147193080320638 -0.026242288926622084
-0.1098477064583066 0.0944199225290703 0.0389661342123396
0.031899675985153406 0.07316487599728674 0.1270012267355866
0.08283088466114177 0.11898295974707199 -0.03849804976981654
-0.10768371979358156 0.09110013705428474 0.051039019584117676
0.04215113953626355 0.07387465029417783 0.12355491685767657
0.07015820945641743 0.12296021521315179 -0.049584383838108294
-0.10411966510404509 0.08808495638158766 0.06245106722767274
0.05207114898612674 0.07479793858469538 0.11913800328503381
0.05511951039627893 0.12642172745114663 -0.058986323855131875
-0.09932045542240114 0.08537119261652058 0.07312459644961994
0.06157130283331473 0.07594272175204372 0.11376149471723687
0.038032826551859626 0.12912538547344815 -0.06618261804136785
-0.09343543686982894 0.08295001109712617 0.08300069153887121
0.07055911457376114 0.0773186332511337 0.10743947274043895
0.019423827974495655 0.13085180931360957 -0.0707143472441906
-0.08659986214808534 0.08080956659836303 0.09203411227429394
0.07893680109501407 0.07893680109501436 0.10018963452260082
-4.579562749549865e-16 0.13144600200657952 -0.07226305111525727
-0.07893680109501458 0.07893680109501446 0.10018963452260032
0.08659986214808486 0.08080956659836291 0.0920341122742945
-0.019423827974494382 0.13085180931360962 -0.07071434724419079
-0.07055911457376073 0.07731863325113363 0.10743947274043929
0.09343543686982995 0.08295001109712653 0.08300069153886971
-0.03803282655186249 0.12912538547344776 -0.06618261804136691
-0.06157130283331431 0.07594272175204367 0.11376149471723714
0.0993204554224014 0.0853711926165207 0.07312459644961945
-0.05511951039628151 0.1264217274511461 -0.05898632385513052
-0.05207114898612519 0.07479793858469522 0.11913800328503461
0.10411966510404527 0.0880849563815878 0.062451067227672206
-0.07015820945641808 0.1229602152131516 -0.04958438383810781
-0.042151139536264225 0.07387465029417789 0.1235549168576763
0.10768371979358202 0.09110013705428525 0.0510390195841158
-0.08283088466114231 0.11898295974707179 -0.038498049769815995
-0.03189967598515292 0.07316487599728673 0.12700122673558675
0.10984770645830667 0.09441992252907047 0.038966134212339014
-0.09300979860496543 0.1147193080320636 -0.026242288926621494
-0.02140210681800478 0.07266236941528391 0.12946864444608788
0.11043077662436443 0.0980381154445393 0.026335745560414806
-0.10071510026700346 0.11036354335562074 -0.013279942627867993
-0.010741615294300939 0.07236265673561344 0.13095137880539104
0.1092379854699861 0.1019340451929695 0.01328581804243736
-0.10606601717798199 0.10606601717798228 -4.881388592701568e-16
1.5939023546259925e-15 0.07226305111525728 0.13144600200657955
0.10606601717798167 0.10606601717798257 -1.4225761041587465e-15
-0.10923798546998625 0.10193404519296924 0.01328581804243829
0.010741615294301694 0.07236265673561347 0.13095137880539098
0.10071510026700299 0.11036354335562103 -0.01327994262786893
0.0 -0.12664918882530227 -0.08037401924684953
-0.08080956659836301 -0.08659986214808531 0.09203411227429399
0.08830065818486967 -0.08830065818486967 0.0831022714986637
-0.01749190640379077 -0.12628055355512016 -0.0790395787196101
-0.07247945758458524 -0.08511388296758926 0.10001177507885674
0.0948290263478382 -0.09021952631457321 0.07326590498652862
-0.03441077651672864 -0.12519930683011177 -0.07510680414433359
-0.06342799950193523 -0.08383845222059996 0.10699534012487029
0.10026434220189967 -0.09235779977261145 0.06258672785808961
-0.05023533300067558 -0.12347529649179544 -0.06877690364195273
-0.05376758995319419 -0.08276895302460356 0.11295285160559755
0.1044694409755072 -0.09471367214734336 0.05114153117213613
-0.06453669888627782 -0.12121246638760186 -0.06035356235630498
-0.04360618768884603 -0.08190089748531507 0.11785899790149687
0.10730077507751366 -0.09728060509321704 0.039025985451521604
-0.07700097720882952 -0.11853405129361791 -0.05020486224268794
-0.03304814364101866 -0.08123026345865762 0.12169414324576047
0.10860996209895636 -0.10004530935481744 0.026359290752259238
-0.08743284209333077 -0.11556779674454809 -0.03872444291521191
-0.02219499871983195 -0.08075372706184974 0.1244436322093137
0.10824701701570616 -0.10298528811526927 0.013289610190536105
-0.09574417509000603 -0.11243404386586198 -0.026299025006712638
-0.011146237469886711 -0.08046881827866996 0.12609730637527228
0.10606601717798218 -0.10606601717798209 2.2124315131448735e-16
-0.10193404519296947 -0.10923798546998613 -0.013285818042437494
1.3064954466969928e-16 -0.08037401924684953 0.12664918882530224
0.10193404519296963 -0.10923798546998602 -0.013285818042437062
-0.10606601717798225 -0.106066017177982 5.335864237584692e-16
0.011146237469887603 -0.08046881827866996 0.12609730637527222
0.09574417509000586 -0.11243404386586205 -0.026299025006712922
-0.10824701701570626 -0.10298528811526902 0.01328961019053716
0.02219499871983221 -0.08075372706184974 0.12444363220931363
0.08743284209333002 -0.11556779674454833 -0.03872444291521289
-0.10860996209895636 -0.10004530935481738 0.026359290752259543
0.03304814364101891 -0.08123026345865762 0.12169414324576039
0.0770009772088299 -0.11853405129361783 -0.05020486224268758
-0.10730077507751355 -0.09728060509321691 0.03902598545152225
0.04360618768884567 -0.08190089748531502 0.11785899790149701
0.06453669888627714 -0.12121246638760198 -0.06035356235630546
-0.10446944097550712 -0.09471367214734332 0.05114153117213639
0.05376758995319526 -0.08276895302460366 0.11295285160559697
0.05023533300067479 -0.12347529649179553 -0.06877690364195312
-0.10026434220189956 -0.09235779977261138 0.06258672785808987
0.06342799950193505 -0.08383845222059995 0.10699534012487043
0.034410776516728026 -0.12519930683011185 -0.07510680414433378
-0.09482902634783813 -0.09021952631457318 0.0732659049865287
0.07247945758458495 -0.08511388296758922 0.10001177507885699
0.017491906403790242 -0.1262805535551202 -0.07903957871961019
-0.08830065818486971 -0.0883006581848697 0.08310227149866366
0.08080956659836265 -0.08659986214808524 0.0920341122742944
-4.117414808383145e-16 -0.12664918882530227 -0.08037401924684953
-0.08080956659836316 -0.08659986214808534 0.09203411227429384
0.08830065818486924 -0.08830065818486955 0.08310227149866428
-0.017491906403789097 -0.12628055355512027 -0.07903957871961036
-0.07247945758458453 -0.08511388296758915 0.10001177507885735
0.09482902634783912 -0.09021952631457351 0.07326590498652706
-0.03441077651673066 -0.1251993068301116 -0.07510680414433293
-0.06342799950193462 -0.08383845222059988 0.10699534012487072
0.1002643422018998 -0.0923577997726115 0.06258672785808936
-0.05023533300067721 -0.1234752964917952 -0.06877690364195194
-0.053767589953193674 -0.0827689530246035 0.11295285160559781
0.10446944097550727 -0.09471367214734343 0.051141531172135844
-0.06453669888627776 -0.12121246638760186 -0.06035356235630503
-0.043606187688846366 -0.08190089748531508 0.11785899790149673
0.10730077507751389 -0.09728060509321734 0.039025985451520265
-0.07700097720883044 -0.11853405129361769 -0.050204862242687075
-0.0330481436410184 -0.0812302634586576 0.12169414324576056
0.10860996209895638 -0.10004530935481752 0.02635929075225894
-0.08743284209333048 -0.11556779674454819 -0.03872444291521234
-0.022194998719832933 -0.08075372706184977 0.12444363220931348
0.10824701701570634 -0.10298528811526882 0.01328961019053803
-0.0957441750900066 -0.11243404386586171 -0.026299025006711604
-0.01114623746988645 -0.08046881827866993 0.1260973063752723
0.1060660171779821 -0.10606601717798216 -9.110012112949486e-17
-0.1019340451929693 -0.10923798546998624 -0.013285818042437933
1.6542710936226956e-15 -0.08037401924684953 0.12664918882530224
0.10193404519296893 -0.10923798546998646 -0.013285818042438861
-0.10606601717798232 -0.10606601717798193 8.459296962024505e-16
0.011146237469887235 -0.08046881827866996 0.12609730637527222
0.09574417509000609 -0.11243404386586192 -0.026299025006712516
0.0 0.009418577929397 -0.14970400926424074
-0.1308518093136095 0.01942382797449624 -0.0707143472441905
0.12628055355512016 0.01749190640379077 -0.0790395787196101
-0.009437126158903021 0.009437126158903021 -0.1494050912777804
-0.13479297701017837 0.021925696707798908 -0.06204931242657843
0.12113914381723816 0.01596409923667867 -0.08700836379790144
-0.018836560913152875 0.009493136674719082 -0.14850947555304403
-0.13801066022806913 0.02526827177110345 -0.05305254098640437
0.11547205458759172 0.014733455999801082 -0.09459984082239338
-0.02816074193517833 0.009587724645275198 -0.14702057049877976
-0.1403339652705902 0.029923359896604072 -0.043714651135873146
0.1093164223293035 0.01372806990228559 -0.10179125652962201
-0.03737236280024607 0.009722809243597379 -0.1449440356797733
-0.1413918211065935 0.03678455420579395 -0.03398896138516246
0.10270599248611274 0.012897925253953545 -0.10855930467530632
-0.04643449506215196 0.009901210335521252 -0.14228774965616242
-0.1402057814050362 0.04773505005235357 -0.023742448422656427
0.09567314403003835 0.012207248437412605 -0.1148809496696246
-0.05531070252953128 0.01012679644497926 -0.1390617639016982
-0.13347482677861985 0.06726784040281701 -0.012629658109329941
0.08824996327908315 0.011629859077970947 -0.12073396522547832
-0.06396514371074394 0.010404698909251317 -0.13527824152712695
-0.10606601717798111 0.10606601717798311 1.8791015128619846e-16
0.08046881827867008 0.01114623746988693 -0.1260973063752722
-0.07236265673561343 0.010741615294301392 -0.130951378805391
1.7568107390360425e-15 0.1497040092642407 0.009418577929396958
0.0723626567356137 0.010741615294301404 -0.13095137880539084
-0.08046881827867026 0.01114623746988694 -0.12609730637527206
0.10606601717798535 0.10606601717797888 -8.455956807878594e-16
0.06396514371074376 0.010404698909251312 -0.13527824152712706
-0.08824996327908374 0.011629859077970988 -0.12073396522547789
0.13347482677862013 0.06726784040281639 -0.012629658109330241
0.055310702529530575 0.01012679644497924 -0.1390617639016985
-0.09567314403003853 0.01220724843741262 -0.11488094966962445
0.14020578140503626 0.047735050052353234 -0.023742448422656683
0.04643449506215226 0.00990121033552126 -0.1422877496561623
-0.10270599248611309 0.012897925253953583 -0.10855930467530597
0.1413918211065935 0.03678455420579423 -0.03398896138516211
0.037372362800245605 0.00972280924359737 -0.14494403567977343
-0.10931642232930365 0.013728069902285615 -0.10179125652962184
0.14033396527059 0.02992335989660347 -0.04371465113587417
0.028160741935177844 0.00958772464527519 -0.14702057049877987
-0.11547205458759184 0.014733455999801106 -0.09459984082239319
0.13801066022806918 0.025268271771103527 -0.0530525409864042
0.01883656091315252 0.009493136674719078 -0.14850947555304406
-0.1211391438172382 0.015964099236678683 -0.08700836379790136
0.1347929770101785 0.021925696707799005 -0.06204931242657814
0.009437126158902735 0.009437126158903021 -0.14940509127778043
-0.12628055355512016 0.017491906403790766 -0.07903957871961016
0.13085180931360973 0.019423827974496342 -0.0707143472441901
-2.210583261481821e-16 0.009418577929397 -0.14970400926424074
-0.13085180931360943 0.019423827974496197 -0.07071434724419064
0.1262805535551205 0.017491906403790877 -0.07903957871960963
-0.009437126158902109 0.009437126158903018 -0.14940509127778046
-0.13479297701017867 0.02192569670779914 -0.06204931242657772
0.12113914381723732 0.015964099236678464 -0.0870083637979026
-0.01883656091315402 0.009493136674719092 -0.1485094755530439
-0.1380106602280693 0.0252682717711037 -0.053052540986403766
0.11547205458759156 0.014733455999801056 -0.09459984082239355
-0.028160741935179333 0.00958772464527521 -0.14702057049877956
-0.14033396527059028 0.029923359896604357 -0.043714651135872654
0.10931642232930334 0.01372806990228557 -0.10179125652962218
-0.037372362800246035 0.009722809243597379 -0.14494403567977332
-0.1413918211065935 0.03678455420579367 -0.033988961385162796
0.102705992486112 0.012897925253953462 -0.10855930467530703
-0.04643449506215268 0.00990121033552127 -0.1422877496561622
-0.14020578140503612 0.0477350500523539 -0.02374244842265617
0.0956731440300382 0.012207248437412593 -0.11488094966962475
-0.055310702529530985 0.01012679644497925 -0.13906176390169833
-0.13347482677862094 0.06726784040281461 -0.01262965810933098
0.08824996327908426 0.011629859077971023 -0.12073396522547752
-0.06396514371074462 0.010404698909251343 -0.13527824152712664
-0.10606601717797991 0.10606601717798436 5.637304538586021e-16
0.08046881827866989 0.011146237469886919 -0.1260973063752723
-0.07236265673561315 0.010741615294301378 -0.13095137880539115
2.2244556840214357e-14 0.1497040092642407 0.009418577929396958
0.07236265673561258 0.010741615294301352 -0.13095137880539148
-0.08046881827867046 0.01114623746988695 -0.12609730637527194
0.1060660171779836 0.10606601717798063 -3.758203025723882e-16
0.06396514371074402 0.010404698909251322 -0.13527824152712695
0.0 0.13572405786990296 -0.06386689373476082
-0.07731863325113376 0.07055911457376145 0.10743947274043875
0.08511388296758926 0.07247945758458524 0.10001177507885674
-0.021925696707798908 0.13479297701017837 -0.06204931242657843
-0.06891534546352271 0.06891534546352271 0.11402346389794796
0.09220194336445912 0.07469883982155624 0.09175448201112878
-0.042644286230883933 0.13212434025447922 -0.056785769028666375
-0.05999442280276165 0.06752858475605511 0.11975207502756582
0.09847230345947568 0.07724238893040342 0.08268505792287521
-0.06117774930591698 0.1280497746201764 -0.048585370324660496
-0.05063959300340797 0.06638219803188793 0.12461555041367994
0.10379984730350934 0.08013728958082388 0.07282586435056793
-0.07690857285589876 0.12300699933207958 -0.03813593497721914
-0.040929543461953904 0.06546240735373 0.12860577629115397
0.10804092340393641 0.08341155589646178 0.06220668141732187
-0.08958428083905617 0.11743383227432806 -0.026152469556699597
-0.030939212742188835 0.06475817210522726 0.1317161503403563
0.11102879425421067 0.08709179136635936 0.050868720477860334
-0.09923516605902016 0.11169722132386703 -0.013270740965212037
-0.020740819712176138 0.06426106198545702 0.13394153317835455
0.11256879364283302 0.09119936064680743 0.03887085431799547
-0.10606601717798218 0.10606601717798207 1.5282921546820073e-16
-0.010404698909251118 0.06396514371074384 0.13527824152712703
0.11243404386586202 0.09574417509000586 0.026299025006712995
-0.1103635433556211 0.10071510026700288 0.01327994262786916
1.2191397098275053e-16 0.06386689373476082 0.13572405786990296
0.1103635433556212 0.10071510026700271 0.013279942627869587