# vtk DataFile Version 2.0
test
ASCII
DATASET UNSTRUCTURED_GRID
POINTS 6400 float
0.0 0.0 0.0
0.0 4.165 0.0
0.0 8.33 0.0
0.0 12.495000000000001 0.0
0.0 16.66 0.0
0.0 20.825 0.0
0.0 24.990000000000002 0.0
0.0 29.155 0.0
0.0 33.32 0.0
0.0 37.485 0.0
0.0 41.65 0.0
0.0 45.815 0.0
0.0 49.980000000000004 0.0
0.0 54.145 0.0
0.0 58.31 0.0
0.0 62.475 0.0
0.0 66.64 0.0
0.0 70.805 0.0
0.0 74.97 0.0
0.0 79.135 0.0
0.0 83.3 0.0
0.0 87.465 0.0
0.0 91.63 0.0
0.0 95.795 0.0
0.0 99.96000000000001 0.0
0.0 104.125 0.0
0.0 108.29 0.0
0.0 112.455 0.0
0.0 116.62 0.0
0.0 120.785 0.0
0.0 124.95 0.0
0.0 129.115 0.0
0.0 133.28 0.0
0.0 137.445 0.0
0.0 141.61 0.0
0.0 145.775 0.0
0.0 149.94 0.0
0.0 154.105 0.0
0.0 158.27 0.0
0.0 162.435 0.0
0.0 166.6 0.0
0.0 170.76500000000001 0.0
0.0 174.93 0.0
0.0 179.095 0.0
0.0 183.26 0.0
0.0 187.425 0.0
0.0 191.59 0.0
0.0 195.755 0.0
0.0 199.92000000000002 0.0
0.0 204.085 0.0
0.0 208.25 0.0
0.0 212.415 0.0
0.0 216.58 0.0
0.0 220.745 0.0
0.0 224.91 0.0
0.0 229.075 0.0
0.0 233.24 0.0
0.0 237.405 0.0
0.0 241.57 0.0
0.0 245.735 0.0
0.0 249.9 0.0
0.0 254.065 0.0
0.0 258.23 0.0
0.0 262.395 0.0
0.0 266.56 0.0
0.0 270.725 0.0
0.0 274.89 0.0
0.0 279.055 0.0
0.0 283.22 0.0
0.0 287.385 0.0
0.0 291.55 0.0
0.0 295.715 0.0
0.0 299.88 0.0
0.0 304.045 0.0
0.0 308.21 0.0
0.0 312.375 0.0
0.0 316.54 0.0
0.0 320.705 0.0
0.0 324.87 0.0
0.0 329.035 0.0
4.165 0.0 0.0
4.165 4.165 0.0
4.165 8.33 0.0
4.165 12.495000000000001 0.0
4.165 16.66 0.0
4.165 20.825 0.0
4.165 24.990000000000002 0.0
4.165 29.155 0.0
4.165 33.32 0.0
4.165 37.485 0.0
4.165 41.65 0.0
4.165 45.815 0.0
4.165 49.980000000000004 0.0
4.165 54.145 0.0
4.165 58.31 0.0
4.165 62.475 0.0
4.165 66.64 0.0
4.165 70.805 0.0
4.165 74.97 0.0
4.165 79.135 0.0
4.165 83.3 0.0
4.165 87.465 0.0
4.165 91.63 0.0
4.165 95.795 0.0
4.165 99.96000000000001 0.0
4.165 104.125 0.0
4.165 108.29 0.0
4.165 112.455 0.0
4.165 116.62 0.0
4.165 120.785 0.0
4.165 124.95 0.0
4.165 129.115 0.0
4.165 133.28 0.0
4.165 137.445 0.0
4.165 141.61 0.0
4.165 145.775 0.0
4.165 149.94 0.0
4.165 154.105 0.0
4.165 158.27 0.0
4.165 162.435 0.0
4.165 166.6 0.0
4.165 170.76500000000001 0.0
4.165 174.93 0.0
4.165 179.095 0.0
4.165 183.26 0.0
4.165 187.425 0.0
4.165 191.59 0.0
4.165 195.755 0.0
4.165 199.92000000000002 0.0
4.165 204.085 0.0
4.165 208.25 0.0
4.165 212.415 0.0
4.165 216.58 0.0
4.165 220.745 0.0
4.165 224.91 0.0
4.165 229.075 0.0
4.165 233.24 0.0
4.165 237.405 0.0
4.165 241.57 0.0
4.165 245.735 0.0
4.165 249.9 0.0
4.165 254.065 0.0
4.165 258.23 0.0
4.165 262.395 0.0
4.165 266.56 0.0
4.165 270.725 0.0
4.165 274.89 0.0
4.165 279.055 0.0
4.165 283.22 0.0
4.165 287.385 0.0
4.165 291.55 0.0
4.165 295.715 0.0
4.165 299.88 0.0
4.165 304.045 0.0
4.165 308.21 0.0
4.165 312.375 0.0
4.165 316.54 0.0
4.165 320.705 0.0
4.165 324.87 0.0
4.165 329.035 0.0
8.33 0.0 0.0
8.33 4.165 0.0
8.33 8.33 0.0
8.33 12.495000000000001 0.0
8.33 16.66 0.0
8.33 20.825 0.0
8.33 24.990000000000002 0.0
8.33 29.155 0.0
8.33 33.32 0.0
8.33 37.485 0.0
8.33 41.65 0.0
8.33 45.815 0.0
8.33 49.980000000000004 0.0
8.33 54.145 0.0
8.33 58.31 0.0
8.33 62.475 0.0
8.33 66.64 0.0
8.33 70.805 0.0
8.33 74.97 0.0
8.33 79.135 0.0
8.33 83.3 0.0
8.33 87.465 0.0
8.33 91.63 0.0
8.33 95.795 0.0
8.33 99.96000000000001 0.0
8.33 104.125 0.0
8.33 108.29 0.0
8.33 112.455 0.0
8.33 116.62 0.0
8.33 120.785 0.0
8.33 124.95 0.0
8.33 129.115 0.0
8.33 133.28 0.0
8.33 137.445 0.0
8.33 141.61 0.0
8.33 145.775 0.0
8.33 149.94 0.0
8.33 154.105 0.0
8.33 158.27 0.0
8.33 162.435 0.0
8.33 166.6 0.0
8.33 170.76500000000001 0.0
8.33 174.93 0.0
8.33 179.095 0.0
8.33 183.26 0.0
8.33 187.425 0.0
8.33 191.59 0.0
8.33 195.755 0.0
8.33 199.92000000000002 0.0
8.33 204.085 0.0
8.33 208.25 0.0
8.33 212.415 0.0
8.33 216.58 0.0
8.33 220.745 0.0
8.33 224.91 0.0
8.33 229.075 0.0
8.33 233.24 0.0
8.33 237.405 0.0
8.33 241.57 0.0
8.33 245.735 0.0
8.33 249.9 0.0
8.33 254.065 0.0
8.33 258.23 0.0
8.33 262.395 0.0
8.33 266.56 0.0
8.33 270.725 0.0
8.33 274.89 0.0
8.33 279.055 0.0
8.33 283.22 0.0
8.33 287.385 0.0
8.33 291.55 0.0
8.33 295.715 0.0
8.33 299.88 0.0
8.33 304.045 0.0
8.33 308.21 0.0
8.33 312.375 0.0
8.33 316.54 0.0
8.33 320.705 0.0
8.33 324.87 0.0
8.33 329.035 0.0
12.495000000000001 0.0 0.0
12.495000000000001 4.165 0.0
12.495000000000001 8.33 0.0
12.495000000000001 12.495000000000001 0.0
12.495000000000001 16.66 0.0
12.495000000000001 20.825 0.0
12.495000000000001 24.990000000000002 0.0
12.495000000000001 29.155 0.0
12.495000000000001 33.32 0.0
12.495000000000001 37.485 0.0
12.495000000000001 41.65 0.0
12.495000000000001 45.815 0.0
12.495000000000001 49.980000000000004 0.0
12.495000000000001 54.145 0.0
12.495000000000001 58.31 0.0
12.495000000000001 62.475 0.0
12.495000000000001 66.64 0.0
12.495000000000001 70.805 0.0
12.495000000000001 74.97 0.0
12.495000000000001 79.135 0.0
12.495000000000001 83.3 0.0
12.495000000000001 87.465 0.0
12.495000000000001 91.63 0.0
12.495000000000001 95.795 0.0
12.495000000000001 99.96000000000001 0.0
12.495000000000001 104.125 0.0
12.495000000000001 108.29 0.0
12.495000000000001 112.455 0.0
12.495000000000001 116.62 0.0
12.495000000000001 120.785 0.0
12.495000000000001 124.95 0.0
12.495000000000001 129.115 0.0
12.495000000000001 133.28 0.0
12.495000000000001 137.445 0.0
12.495000000000001 141.61 0.0
12.495000000000001 145.775 0.0
12.495000000000001 149.94 0.0
12.495000000000001 154.105 0.0
12.495000000000001 158.27 0.0
12.495000000000001 162.435 0.0
12.495000000000001 166.6 0.0
12.495000000000001 170.76500000000001 0.0
12.495000000000001 174.93 0.0
12.495000000000001 179.095 0.0
12.495000000000001 183.26 0.0
12.495000000000001 187.425 0.0
12.495000000000001 191.59 0.0
12.495000000000001 195.755 0.0
12.495000000000001 199.92000000000002 0.0
12.495000000000001 204.085 0.0
12.495000000000001 208.25 0.0
12.495000000000001 212.415 0.0
12.495000000000001 216.58 0.0
12.495000000000001 220.745 0.0
12.495000000000001 224.91 0.0
12.495000000000001 229.075 0.0
12.495000000000001 233.24 0.0
12.495000000000001 237.405 0.0
12.495000000000001 241.57 0.0
12.495000000000001 245.735 0.0
12.495000000000001 249.9 0.0
12.495000000000001 254.065 0.0
12.495000000000001 258.23 0.0
12.495000000000001 262.395 0.0
12.495000000000001 266.56 0.0
12.495000000000001 270.725 0.0
12.495000000000001 274.89 0.0
12.495000000000001 279.055 0.0
12.495000000000001 283.22 0.0
12.495000000000001 287.385 0.0
12.495000000000001 291.55 0.0
12.495000000000001 295.715 0.0
12.495000000000001 299.88 0.0
12.495000000000001 304.045 0.0
12.495000000000001 308.21 0.0
12.495000000000001 312.375 0.0
12.495000000000001 316.54 0.0
12.495000000000001 320.705 0.0
12.495000000000001 324.87 0.0
12.495000000000001 329.035 0.0
16.66 0.0 0.0
16.66 4.165 0.0
16.66 8.33 0.0
16.66 12.495000000000001 0.0
16.66 16.66 0.0
16.66 20.825 0.0
16.66 24.990000000000002 0.0
16.66 29.155 0.0
16.66 33.32 0.0
16.66 37.485 0.0
16.66 41.65 0.0
16.66 45.815 0.0
16.66 49.980000000000004 0.0
16.66 54.145 0.0
16.66 58.31 0.0
16.66 62.475 0.0
16.66 66.64 0.0
16.66 70.805 0.0
16.66 74.97 0.0
16.66 79.135 0.0
16.66 83.3 0.0
16.66 87.465 0.0
16.66 91.63 0.0
16.66 95.795 0.0
16.66 99.96000000000001 0.0
16.66 104.125 0.0
16.66 108.29 0.0
16.66 112.455 0.0
16.66 116.62 0.0
16.66 120.785 0.0
16.66 124.95 0.0
16.66 129.115 0.0
16.66 133.28 0.0
16.66 137.445 0.0
16.66 141.61 0.0
16.66 145.775 0.0
16.66 149.94 0.0
16.66 154.105 0.0
16.66 158.27 0.0
16.66 162.435 0.0
16.66 166.6 0.0
16.66 170.76500000000001 0.0
16.66 174.93 0.0
16.66 179.095 0.0
16.66 183.26 0.0
16.66 187.425 0.0
16.66 191.59 0.0
16.66 195.755 0.0
16.66 199.92000000000002 0.0
16.66 204.085 0.0
16.66 208.25 0.0
16.66 212.415 0.0
16.66 216.58 0.0
16.66 220.745 0.0
16.66 224.91 0.0
16.66 229.075 0.0
16.66 233.24 0.0
16.66 237.405 0.0
16.66 241.57 0.0
16.66 245.735 0.0
16.66 249.9 0.0
16.66 254.065 0.0
16.66 258.23 0.0
16.66 262.395 0.0
16.66 266.56 0.0
16.66 270.725 0.0
16.66 274.89 0.0
16.66 279.055 0.0
16.66 283.22 0.0
16.66 287.385 0.0
16.66 291.55 0.0
16.66 295.715 0.0
16.66 299.88 0.0
16.66 304.045 0.0
16.66 308.21 0.0
16.66 312.375 0.0
16.66 316.54 0.0
16.66 320.705 0.0
16.66 324.87 0.0
16.66 329.035 0.0
20.825 0.0 0.0
20.825 4.165 0.0
20.825 8.33 0.0
20.825 12.495000000000001 0.0
20.825 16.66 0.0
20.825 20.825 0.0
20.825 24.990000000000002 0.0
20.825 29.155 0.0
20.825 33.32 0.0
20.825 37.485 0.0
20.825 41.65 0.0
20.825 45.815 0.0
20.825 49.980000000000004 0.0
20.825 54.145 0.0
20.825 58.31 0.0
20.825 62.475 0.0
20.825 66.64 0.0
20.825 70.805 0.0
20.825 74.97 0.0
20.825 79.135 0.0
20.825 83.3 0.0
20.825 87.465 0.0
20.825 91.63 0.0
20.825 95.795 0.0
20.825 99.96000000000001 0.0
20.825 104.125 0.0
20.825 108.29 0.0
20.825 112.455 0.0
20.825 116.62 0.0
20.825 120.785 0.0
20.825 124.95 0.0
20.825 129.115 0.0
20.825 133.28 0.0
20.825 137.445 0.0
20.825 141.61 0.0
20.825 145.775 0.0
20.825 149.94 0.0
20.825 154.105 0.0
20.825 158.27 0.0
20.825 162.435 0.0
20.825 166.6 0.0
20.825 170.76500000000001 0.0
20.825 174.93 0.0
20.825 179.095 0.0
20.825 183.26 0.0
20.825 187.425 0.0
20.825 191.59 0.0
20.825 195.755 0.0
20.825 199.92000000000002 0.0
20.825 204.085 0.0
20.825 208.25 0.0
20.825 212.415 0.0
20.825 216.58 0.0
20.825 220.745 0.0
20.825 224.91 0.0
20.825 229.075 0.0
20.825 233.24 0.0
20.825 237.405 0.0
20.825 241.57 0.0
20.825 245.735 0.0
20.825 249.9 0.0
20.825 254.065 0.0
20.825 258.23 0.0
20.825 262.395 0.0
20.825 266.56 0.0
20.825 270.725 0.0
20.825 274.89 0.0
20.825 279.055 0.0
20.825 283.22 0.0
20.825 287.385 0.0
20.825 291.55 0.0
20.825 295.715 0.0
20.825 299.88 0.0
20.825 304.045 0.0
20.825 308.21 0.0
20.825 312.375 0.0
20.825 316.54 0.0
20.825 320.705 0.0
20.825 324.87 0.0
20.825 329.035 0.0
24.990000000000002 0.0 0.0
24.990000000000002 4.165 0.0
24.990000000000002 8.33 0.0
24.990000000000002 12.495000000000001 0.0
24.990000000000002 16.66 0.0
24.990000000000002 20.825 0.0
24.990000000000002 24.990000000000002 0.0
24.990000000000002 29.155 0.0
24.990000000000002 33.32 0.0
24.990000000000002 37.485 0.0
24.990000000000002 41.65 0.0
24.990000000000002 45.815 0.0
[...]
POINT_DATA 6400
VECTORS vector float
0.0 0.0 -0.15
-0.14999642823465767 0.0 0.0010351409784125152
0.14901475819877819 0.0 -0.017163969207606516
-0.01230956783929366 0.0 -0.14949406188745368
-0.1485630948748752 0.0 0.020712480324645507
0.14610774047558428 0.0 -0.03394890533020627
-0.024556659772622096 0.0 -0.1479762496511237
-0.14403901722273796 0.0 0.04186599476314634
0.14163180541500145 0.0 -0.049400725651423026
-0.03667851291988555 0.0 -0.14544650800203415
-0.13550779328407614 0.0 0.06432447403034158
0.13585102346165967 0.0 -0.06359637901971771
-0.04861175226351664 0.0 -0.1419045367205379
-0.12179676672047832 0.0 0.08755311311676689
0.1289661754428689 0.0 -0.0766010808777471
-0.06029198472236483 0.0 -0.13734946879488877
-0.10160782829576334 0.0 0.11034423061047949
0.12113474537177538 0.0 -0.08846679300005818
-0.0716532604123406 0.0 -0.13177940003005517
-0.07398778597102737 0.0 0.13048297792089758
0.1124845098311925 0.0 -0.09923323560197138
-0.08262733291568472 0.0 -0.1251907498788972
-0.03926402876902257 0.0 0.1447699417863576
0.10312276594281726 0.0 -0.10892977161594955
-0.09314262487885784 0.0 -0.11757742738585655
4.69408761781915e-16 0.0 0.15
0.09314262487885819 0.0 -0.11757742738585629
-0.10312276594281748 0.0 -0.10892977161594931
0.03926402876902558 0.0 0.14476994178635677
0.08262733291568446 0.0 -0.12519074987889736
-0.11248450983119321 0.0 -0.09923323560197055
0.0739877859710281 0.0 0.13048297792089716
0.07165326041233969 0.0 -0.13177940003005564
-0.12113474537177557 0.0 -0.08846679300005793
0.10160782829576388 0.0 0.11034423061047896
0.06029198472236521 0.0 -0.1373494687948886
-0.1289661754428693 0.0 -0.07660108087774646
0.12179676672047776 0.0 0.08755311311676765
0.04861175226351603 0.0 -0.1419045367205381
-0.13585102346165984 0.0 -0.0635963790197174
0.1355077932840773 0.0 0.06432447403033908
0.03667851291988493 0.0 -0.14544650800203432
-0.14163180541500156 0.0 -0.04940072565142267
0.14403901722273782 0.0 0.041865994763146765
0.024556659772621635 0.0 -0.14797624965112377
-0.1461077404755843 0.0 -0.03394890533020612
0.14856309487487512 0.0 0.020712480324646187
0.012309567839293285 0.0 -0.14949406188745368
-0.14901475819877819 0.0 -0.01716396920760662
0.14999642823465767 0.0 0.0010351409784134066
-2.8839492553921575e-16 0.0 -0.15
-0.14999642823465767 0.0 0.0010351409784121587
0.1490147581987783 0.0 -0.017163969207605462
-0.012309567839292471 0.0 -0.14949406188745376
-0.14856309487487498 0.0 0.020712480324647148
0.14610774047558373 0.0 -0.03394890533020869
-0.024556659772623588 0.0 -0.14797624965112344
-0.14403901722273754 0.0 0.04186599476314778
0.14163180541500134 0.0 -0.04940072565142338
-0.036678512919886865 0.0 -0.14544650800203385
-0.13550779328407558 0.0 0.06432447403034276
0.13585102346165953 0.0 -0.06359637901971803
-0.04861175226351658 0.0 -0.1419045367205379
-0.12179676672047889 0.0 0.08755311311676613
0.12896617544286815 0.0 -0.07660108087774845
-0.06029198472236575 0.0 -0.13734946879488838
-0.10160782829576279 0.0 0.11034423061048
0.12113474537177517 0.0 -0.08846679300005844
-0.07165326041234021 0.0 -0.13177940003005537
-0.07398778597103019 0.0 0.130482977920896
0.11248450983119382 0.0 -0.09923323560196988
-0.08262733291568557 0.0 -0.12519074987889664
-0.03926402876902167 0.0 0.14476994178635783
0.10312276594281704 0.0 -0.10892977161594977
-0.09314262487885751 0.0 -0.11757742738585683
5.943605449771917e-15 0.0 0.15
0.09314262487885679 0.0 -0.1175774273858574
-0.1031227659428177 0.0 -0.10892977161594912
0.039264028769024316 0.0 0.1447699417863571
0.08262733291568482 0.0 -0.12519074987889714
0.0 0.14999642823465767 0.0010351409784125152
-0.06494851475920686 0.06494851475920686 0.11858912623485415
0.07172139947889622 0.06692591724692261 0.11347670447033015
-0.02202203594106388 0.148355064276782 0.0024093228182159813
-0.05773905045461885 0.06327041507447582 0.12313836375761421
0.07798675265155859 0.06923499492904399 0.10781735429901752
-0.04234323133701895 0.1437596561782895 0.006341294460887632
-0.05015742967226339 0.06186472512544242 0.12711014134924642
0.08366469450309762 0.07191423679291076 0.1016295303550917
-0.05974603114671247 0.13703308341481907 0.012342844568546799
-0.042263314020763505 0.06070941064413731 0.1304920677559515
0.08866315966925349 0.07500879439360124 0.09493431877399719
-0.07368597108306883 0.1291430173712244 0.019810571162911236
-0.03411291041446652 0.05978674254386958 0.13327360863669757
0.09287348853105189 0.07857072127622282 0.08775623559728778
-0.08417513453549813 0.12091391616924381 0.028184598676366995
-0.025759944384262202 0.05908283010299979 0.13544609426757118
0.09616451783718165 0.08265849708640398 0.08012464270472172
-0.09154387226597897 0.11291121837100748 0.03702399514537555
-0.017256394244225846 0.05858724582642126 0.1370027426154759
0.0983748159698725 0.08733508773279655 0.07207619602613918
-0.09623729878441006 0.10545677131496502 0.04601360349400336
-0.00865305694007227 0.058292740143129726 0.13793868584337543
0.09930287064307537 0.09266321838847916 0.06365899653571096
-0.09869562476662945 0.09869562476662948 0.05493948765550469
1.0137540956584947e-16 0.05819504183241185 0.138250993146971
0.09869562476662952 0.09869562476662928 0.054939487655504986
-0.09930287064307534 0.09266321838847902 0.06365899653571114
0.00865305694007296 0.058292740143129754 0.13793868584337537
0.09623729878441 0.10545677131496518 0.04601360349400315
-0.09837481596987238 0.08733508773279616 0.07207619602613985
0.017256394244226043 0.05858724582642126 0.13700274261547585
0.09154387226597849 0.11291121837100809 0.037023995145374806
-0.09616451783718159 0.08265849708640388 0.08012464270472192
0.025759944384262407 0.05908283010299982 0.13544609426757115
0.08417513453549842 0.12091391616924356 0.028184598676367283
-0.0928734885310517 0.07857072127622262 0.08775623559728817
0.03411291041446625 0.05978674254386956 0.13327360863669765
0.0736859710830682 0.12914301737122483 0.019810571162910826
-0.08866315966925338 0.07500879439360116 0.09493431877399736
0.04226331402076436 0.06070941064413741 0.13049206775595118
0.059746031146711655 0.13703308341481946 0.012342844568546436
-0.0836646945030975 0.0719142367929107 0.10162953035509187
0.050157429672263235 0.061864725125442395 0.1271101413492465
0.042343231337018235 0.14375965617828973 0.006341294460887453
-0.07798675265155854 0.06923499492904396 0.10781735429901758
0.05773905045461861 0.06327041507447578 0.12313836375761437
0.022022035941063223 0.14835506427678208 0.0024093228182159045
-0.07172139947889625 0.06692591724692262 0.11347670447033013
0.06494851475920653 0.06494851475920678 0.1185891262348544
-5.225857346917133e-16 0.14999642823465767 0.0010351409784125152
-0.06494851475920699 0.06494851475920689 0.11858912623485407
0.07172139947889582 0.06692591724692248 0.1134767044703305
-0.0220220359410618 0.1483550642767823 0.0024093228182157328
-0.05773905045461827 0.06327041507447571 0.12313836375761457
0.07798675265155948 0.06923499492904436 0.10781735429901664
-0.04234323133702127 0.14375965617828879 0.0063412944608882615
-0.05015742967226286 0.06186472512544233 0.12711014134924667
0.08366469450309776 0.07191423679291083 0.10162953035509155
-0.05974603114671417 0.13703308341481824 0.012342844568547536
-0.042263314020763075 0.06070941064413724 0.13049206775595168
0.0886631596692536 0.0750087943936013 0.09493431877399706
-0.07368597108306878 0.12914301737122447 0.01981057116291119
-0.03411291041446679 0.059786742543869606 0.1332736086366975
0.0928734885310523 0.07857072127622322 0.08775623559728697
-0.08417513453549882 0.12091391616924314 0.0281845986763677
-0.025759944384262008 0.059082830102999785 0.13544609426757123
0.09616451783718173 0.08265849708640408 0.08012464270472155
-0.09154387226597878 0.11291121837100773 0.037023995145375244
-0.017256394244226616 0.058587245826421296 0.1370027426154758
0.09837481596987228 0.08733508773279583 0.0720761960261404
-0.09623729878441036 0.10545677131496443 0.046013603494004074
-0.008653056940072065 0.05829274014312971 0.13793868584337543
0.09930287064307537 0.09266321838847928 0.06365899653571075
-0.09869562476662942 0.0986956247666297 0.054939487655504396
1.2836050066069663e-15 0.05819504183241185 0.138250993146971
0.0986956247666293 0.09869562476663013 0.054939487655503765
-0.09930287064307533 0.0926632183884789 0.06365899653571135
0.008653056940072673 0.05829274014312974 0.1379386858433754
0.0962372987844101 0.10545677131496493 0.04601360349400344
0.0 -0.14901475819877819 -0.017163969207606516
-0.06692591724692261 -0.07172139947889622 0.11347670447033015
0.0737811532826808 -0.0737811532826808 0.10776215866692315
-0.020467426562274262 -0.14776193609020413 -0.015731964047516034
-0.059579605573936094 -0.06996536322249775 0.11855428524013023
0.08006496261918294 -0.07617312209239369 0.10142611710741035
-0.039633923716482194 -0.14420307469227775 -0.011602816043074738
-0.051815222993850725 -0.0684888082768107 0.12298156693960192
0.08568722223096202 -0.0789301873435969 0.0944866417661588
-0.05649333031416415 -0.13885706122932526 -0.00521729592510853
-0.043700283835535925 -0.06727150581035922 0.1267471092321257
0.09054488649452971 -0.08208944753587706 0.08696520070089654
-0.0704819982733178 -0.13237889439758857 0.002848901099039725
-0.03529823105147088 -0.06629693986064633 0.1298412517259088
0.09451794947734621 -0.08569149021229433 0.07888805823313245
-0.08145091143163968 -0.12538420762331345 0.012022874266539378
-0.02666952619498881 -0.06555202200367029 0.1322560727670572
0.09746439716191652 -0.08977864992035042 0.07028858587525684
-0.08953816425372509 -0.11835058908766469 0.02181868934367249
-0.017872496063888542 -0.06502684173473863 0.13398538628690648
0.09921417472336759 -0.09439151905241092 0.06121101751269481
-0.0950309871707337 -0.11159653493412083 0.03186416275462767
-0.008964003940941326 -0.06471446585645192 0.13502475529420857
0.09956257469880185 -0.09956257469880175 0.05171641362943704
-0.09826428703477809 -0.10530527596548268 0.041891869704994915
1.0502611125717532e-16 -0.0646107930107752 0.13537150891719704
0.09826428703477817 -0.10530527596548252 0.04189186970499526
-0.09956257469880185 -0.09956257469880161 0.05171641362943726
0.00896400394094204 -0.06471446585645194 0.13502475529420851
0.09503098717073358 -0.11159653493412097 0.031864162754627424
-0.09921417472336751 -0.09439151905241054 0.06121101751269555
0.017872496063888743 -0.06502684173473863 0.1339853862869064
0.08953816425372457 -0.11835058908766524 0.021818689343671677
-0.09746439716191649 -0.08977864992035033 0.07028858587525706
0.026669526194989013 -0.0655520220036703 0.13225607276705714
0.08145091143164 -0.12538420762331323 0.012022874266539694
-0.09451794947734603 -0.08569149021229414 0.07888805823313287
0.03529823105147061 -0.06629693986064632 0.12984125172590893
0.07048199827331716 -0.13237889439758896 0.0028489010990392786
-0.09054488649452962 -0.082089447535877 0.08696520070089671
0.04370028383553681 -0.06727150581035933 0.12674710923212534
0.05649333031416334 -0.1388570612293256 -0.005217295925108916
-0.08568722223096188 -0.07893018734359683 0.09448664176615897
0.051815222993850565 -0.06848880827681067 0.12298156693960201
0.03963392371648152 -0.14420307469227794 -0.01160281604307493
-0.0800649626191829 -0.07617312209239364 0.10142611710741042
0.05957960557393584 -0.06996536322249769 0.1185542852401304
0.02046742656227365 -0.1477619360902042 -0.015731964047516114
-0.07378115328268083 -0.0737811532826808 0.10776215866692311
0.06692591724692228 -0.07172139947889614 0.11347670447033043
-4.844528241879315e-16 -0.14901475819877819 -0.017163969207606516
-0.06692591724692275 -0.07172139947889626 0.11347670447033006
0.07378115328268038 -0.07378115328268066 0.10776215866692353
-0.020467426562272323 -0.14776193609020438 -0.015731964047516277
-0.05957960557393549 -0.06996536322249762 0.11855428524013062
0.08006496261918385 -0.07617312209239406 0.10142611710740936
-0.03963392371648441 -0.1442030746922772 -0.011602816043074055
-0.0518152229938502 -0.06848880827681061 0.12298156693960222
0.08568722223096215 -0.07893018734359697 0.09448664176615863
-0.05649333031416583 -0.13885706122932462 -0.005217295925107755
-0.04370028383553549 -0.06727150581035916 0.12674710923212587
0.09054488649452981 -0.08208944753587714 0.08696520070089635
-0.07048199827331775 -0.13237889439758865 0.0028489010990396775
-0.03529823105147117 -0.06629693986064636 0.1298412517259087
0.09451794947734657 -0.08569149021229473 0.07888805823313155
-0.08145091143164043 -0.12538420762331287 0.012022874266540156
-0.026669526194988604 -0.06555202200367027 0.13225607276705725
0.09746439716191659 -0.08977864992035052 0.07028858587525665
-0.08953816425372489 -0.11835058908766494 0.021818689343672155
-0.017872496063889333 -0.06502684173473866 0.13398538628690632
0.09921417472336742 -0.09439151905241021 0.06121101751269617
-0.09503098717073405 -0.1115965349341203 0.03186416275462847
-0.008964003940941117 -0.06471446585645192 0.1350247552942086
0.09956257469880185 -0.0995625746988019 0.051716413629436825
-0.09826428703477802 -0.10530527596548292 0.04189186970499458
1.3298298158450538e-15 -0.0646107930107752 0.13537150891719704
0.09826428703477787 -0.10530527596548334 0.04189186970499389
-0.09956257469880185 -0.09956257469880149 0.05171641362943749
0.008964003940941745 -0.06471446585645194 0.13502475529420854
0.09503098717073373 -0.11159653493412075 0.03186416275462776
0.0 0.01230956783929366 -0.14949406188745368
-0.148355064276782 0.02202203594106388 0.0024093228182159813
0.14776193609020413 0.020467426562274262 -0.015731964047516034
-0.012331352418088316 0.012331352418088316 -0.14898280268232914
-0.14646490338554582 0.02382427572414292 0.021918849478992593
0.14517530956088828 0.019131661125507904 -0.03252858798778372
-0.02459860441257996 0.012397056701200298 -0.14744904762697053
-0.14143190356620666 0.025894664734663477 0.042737372309474005
0.14095828335038404 0.017985327038370233 -0.04803426242002382
-0.03673732568054505 0.012507744420925986 -0.14489280600272175
-0.13239050588941284 0.028229578968881373 0.06462077701161623
0.13538344998651378 0.017001594320648013 -0.06230784268697828
-0.04868238549863414 0.012665229390403286 -0.1413138963678054
-0.11828185951310342 0.03077225711338519 0.0869624626046789
0.12865994551277762 0.01615724964272091 -0.07540266377676513
-0.06036749633779761 0.012872139082578896 -0.1367116433276432
-0.09801086249761358 0.03336919048639083 0.10853740350108272
0.12095269741943292 0.015432749091120468 -0.08736289396794057
-0.0717246167157428 0.013132008098915019 -0.13108443736870454
-0.07089186528308422 0.035727655879485856 0.127270884502474
0.11239584172688309 0.014811879253703836 -0.09822312861785225
-0.08268314190231407 0.013449406136798526 -0.12442914256607748
-0.03742694560976155 0.03742694560976225 0.14035115776026874
0.1031020138107495 0.014281302424231012 -0.10800934750860995
-0.09316878527936281 0.013830106494911877 -0.11674033409198117
4.465606802808073e-16 0.038053002940137484 0.14509296663600854
0.09316878527936315 0.01383010649491189 -0.1167403340919809
-0.10310201381074974 0.014281302424231025 -0.10800934750860974
0.03742694560976442 0.03742694560976215 0.140351157760268
0.08268314190231384 0.01344940613679852 -0.12442914256607766
-0.1123958417268838 0.01481187925370388 -0.09822312861785143
0.07089186528308494 0.03572765587948581 0.12727088450247362
0.07172461671574189 0.013132008098914991 -0.131084437368705
-0.12095269741943311 0.015432749091120487 -0.08736289396794027
0.09801086249761412 0.033369190486390775 0.10853740350108222
0.06036749633779799 0.012872139082578907 -0.13671164332764305
-0.12865994551277798 0.01615724964272095 -0.07540266377676448
0.11828185951310288 0.030772257113385278 0.08696246260467964
0.048682385498633525 0.012665229390403276 -0.1413138963678056
-0.13538344998651392 0.01700159432064804 -0.06230784268697796
0.1323905058894141 0.02822957896888111 0.06462077701161383
0.03673732568054442 0.012507744420925976 -0.1448928060027219
-0.14095828335038413 0.017985327038370257 -0.04803426242002347
0.14143190356620652 0.025894664734663522 0.04273737230947442
0.024598604412579505 0.012397056701200298 -0.14744904762697064
-0.1451753095608883 0.019131661125507914 -0.03252858798778357
0.14646490338554574 0.023824275724142988 0.02191884947899327
0.012331352418087941 0.012331352418088313 -0.14898280268232916
-0.1477619360902041 0.020467426562274255 -0.0157319640475161
0.14835506427678194 0.02202203594106395 0.0024093228182168673
-2.8891117985748457e-16 0.01230956783929366 -0.14949406188745368
-0.14835506427678197 0.02202203594106384 0.002409322818215626
0.14776193609020424 0.020467426562274352 -0.01573196404751494
-0.012331352418087122 0.01233135241808831 -0.14898280268232922
-0.14646490338554558 0.02382427572414308 0.021918849478994216
0.14517530956088776 0.019131661125507717 -0.03252858798778614
-0.02459860441258146 0.012397056701200313 -0.1474490476269703
-0.1414319035662062 0.025894664734663626 0.04273737230947543
0.14095828335038393 0.01798532703837021 -0.048034262420024176
-0.03673732568054635 0.012507744420925998 -0.14489280600272142
-0.13239050588941229 0.0282295789688815 0.06462077701161738
0.13538344998651364 0.017001594320647996 -0.0623078426869786
-0.04868238549863408 0.012665229390403284 -0.14131389636780542
-0.118281859513104 0.030772257113385104 0.08696246260467816
0.12865994551277682 0.016157249642720826 -0.07540266377676648
-0.060367496337798546 0.012872139082578919 -0.1367116433276428
-0.09801086249761302 0.03336919048639089 0.10853740350108321
0.12095269741943274 0.015432749091120456 -0.08736289396794082
-0.07172461671574243 0.013132008098915007 -0.1310844373687047
-0.07089186528308694 0.03572765587948566 0.1272708845024725
0.1123958417268844 0.01481187925370392 -0.09822312861785075
-0.08268314190231493 0.013449406136798554 -0.12442914256607691
-0.037426945609760696 0.03742694560976227 0.14035115776026896
0.1031020138107493 0.014281302424231002 -0.10800934750861019
-0.09316878527936248 0.013830106494911861 -0.11674033409198145
5.654305392373523e-15 0.038053002940137484 0.14509296663600854
0.09316878527936175 0.01383010649491183 -0.116740334091982
-0.10310201381074997 0.014281302424231038 -0.10800934750860952
0.037426945609763236 0.03742694560976219 0.14035115776026832
0.08268314190231417 0.013449406136798528 -0.12442914256607741
0.0 0.1485630948748752 0.020712480324645507
-0.06327041507447582 0.05773905045461885 0.12313836375761421
0.06996536322249775 0.059579605573936094 0.11855428524013023
-0.02382427572414292 0.14646490338554582 0.021918849478992593
-0.05618299805759092 0.05618299805759092 0.12722791147590795
0.07620514454942347 0.06173878422252619 0.11349492705370504
-0.045410607550731785 0.14069520429328433 0.025352242716264885
-0.04876022979911573 0.05488359012202616 0.13080608367065674
0.08191924353376916 0.06425804868598252 0.1079821314751886
-0.06330831977595353 0.13250922387412595 0.030550977650844205
-0.04105524757189769 0.05381831513500686 0.13385834155120585
0.08702618406458419 0.0671874062888133 0.10204065720750255
-0.077068040062447 0.12326204999601689 0.036972749853270204
-0.03311835957029287 0.05296925794183579 0.13637240179913257
0.09142910106901034 0.070586619718794 0.095698738729343
-0.08694909024179216 0.11397942567853304 0.04414234053736215
-0.024997880242655434 0.05232250233737576 0.13833821501135962
0.09500950189429282 0.07452614227129346 0.0889890367851978
-0.09352047258475132 0.10526487070519798 0.051703270718038055
-0.01674074406129729 0.05186766997324357 0.1397479599129119
0.09761852725147108 0.07908716958328998 0.08195024554299842
-0.09739275651376096 0.09739275651376086 0.05940792840440205
-0.008392966053317602 0.05159757955922392 0.14059604512381355
0.0990649041179766 0.08435956938862765 0.07462980520315875
-0.0990989254595606 0.09043528243607761 0.0670884689307136
9.83224022362046e-17 0.05150801310749344 0.1408791133763919
0.09909892545956062 0.09043528243607737 0.06708846893071385
-0.09906490411797655 0.08435956938862753 0.07462980520315891