# vtk DataFile Version 2.0
test
ASCII
DATASET UNSTRUCTURED_GRID
POINTS 22500 float
0.0 0.0 0.0
0.0 4.234 0.0
0.0 8.468 0.0
0.0 12.702 0.0
0.0 16.936 0.0
0.0 21.17 0.0
0.0 25.404 0.0
0.0 29.637999999999998 0.0
0.0 33.872 0.0
0.0 38.106 0.0
0.0 42.34 0.0
0.0 46.574 0.0
0.0 50.808 0.0
0.0 55.042 0.0
0.0 59.275999999999996 0.0
0.0 63.51 0.0
0.0 67.744 0.0
0.0 71.978 0.0
0.0 76.212 0.0
0.0 80.446 0.0
0.0 84.68 0.0
0.0 88.914 0.0
0.0 93.148 0.0
0.0 97.382 0.0
0.0 101.616 0.0
0.0 105.85 0.0
0.0 110.084 0.0
0.0 114.318 0.0
0.0 118.55199999999999 0.0
0.0 122.786 0.0
0.0 127.02 0.0
0.0 131.254 0.0
0.0 135.488 0.0
0.0 139.722 0.0
0.0 143.956 0.0
0.0 148.19 0.0
0.0 152.424 0.0
0.0 156.658 0.0
0.0 160.892 0.0
0.0 165.126 0.0
0.0 169.36 0.0
0.0 173.594 0.0
0.0 177.828 0.0
0.0 182.062 0.0
0.0 186.296 0.0
0.0 190.53 0.0
0.0 194.764 0.0
0.0 198.998 0.0
0.0 203.232 0.0
0.0 207.466 0.0
0.0 211.7 0.0
0.0 215.934 0.0
0.0 220.168 0.0
0.0 224.402 0.0
0.0 228.636 0.0
0.0 232.87 0.0
0.0 237.10399999999998 0.0
0.0 241.338 0.0
0.0 245.572 0.0
0.0 249.806 0.0
0.0 254.04 0.0
0.0 258.274 0.0
0.0 262.508 0.0
0.0 266.742 0.0
0.0 270.976 0.0
0.0 275.21 0.0
0.0 279.444 0.0
0.0 283.678 0.0
0.0 287.912 0.0
0.0 292.146 0.0
0.0 296.38 0.0
0.0 300.614 0.0
0.0 304.848 0.0
0.0 309.082 0.0
0.0 313.316 0.0
0.0 317.55 0.0
0.0 321.784 0.0
0.0 326.018 0.0
0.0 330.252 0.0
0.0 334.486 0.0
0.0 338.72 0.0
0.0 342.954 0.0
0.0 347.188 0.0
0.0 351.422 0.0
0.0 355.656 0.0
0.0 359.89 0.0
0.0 364.124 0.0
0.0 368.358 0.0
0.0 372.592 0.0
0.0 376.826 0.0
0.0 381.06 0.0
0.0 385.294 0.0
0.0 389.528 0.0
0.0 393.762 0.0
0.0 397.996 0.0
0.0 402.23 0.0
0.0 406.464 0.0
0.0 410.698 0.0
0.0 414.932 0.0
0.0 419.166 0.0
0.0 423.4 0.0
0.0 427.634 0.0
0.0 431.868 0.0
0.0 436.102 0.0
0.0 440.336 0.0
0.0 444.57 0.0
0.0 448.804 0.0
0.0 453.038 0.0
0.0 457.272 0.0
0.0 461.506 0.0
0.0 465.74 0.0
0.0 469.974 0.0
0.0 474.20799999999997 0.0
0.0 478.442 0.0
0.0 482.676 0.0
0.0 486.91 0.0
0.0 491.144 0.0
0.0 495.378 0.0
0.0 499.612 0.0
0.0 503.846 0.0
0.0 508.08 0.0
0.0 512.314 0.0
0.0 516.548 0.0
0.0 520.782 0.0
0.0 525.016 0.0
0.0 529.25 0.0
0.0 533.484 0.0
0.0 537.718 0.0
0.0 541.952 0.0
0.0 546.186 0.0
0.0 550.42 0.0
0.0 554.654 0.0
0.0 558.888 0.0
0.0 563.122 0.0
0.0 567.356 0.0
0.0 571.59 0.0
0.0 575.824 0.0
0.0 580.058 0.0
0.0 584.292 0.0
0.0 588.526 0.0
0.0 592.76 0.0
0.0 596.994 0.0
0.0 601.228 0.0
0.0 605.462 0.0
0.0 609.696 0.0
0.0 613.93 0.0
0.0 618.164 0.0
0.0 622.398 0.0
0.0 626.632 0.0
0.0 630.866 0.0
4.234 0.0 0.0
4.234 4.234 0.0
4.234 8.468 0.0
4.234 12.702 0.0
4.234 16.936 0.0
4.234 21.17 0.0
4.234 25.404 0.0
4.234 29.637999999999998 0.0
4.234 33.872 0.0
4.234 38.106 0.0
4.234 42.34 0.0
4.234 46.574 0.0
4.234 50.808 0.0
4.234 55.042 0.0
4.234 59.275999999999996 0.0
4.234 63.51 0.0
4.234 67.744 0.0
4.234 71.978 0.0
4.234 76.212 0.0
4.234 80.446 0.0
4.234 84.68 0.0
4.234 88.914 0.0
4.234 93.148 0.0
4.234 97.382 0.0
4.234 101.616 0.0
4.234 105.85 0.0
4.234 110.084 0.0
4.234 114.318 0.0
4.234 118.55199999999999 0.0
4.234 122.786 0.0
4.234 127.02 0.0
4.234 131.254 0.0
4.234 135.488 0.0
4.234 139.722 0.0
4.234 143.956 0.0
4.234 148.19 0.0
4.234 152.424 0.0
4.234 156.658 0.0
4.234 160.892 0.0
4.234 165.126 0.0
4.234 169.36 0.0
4.234 173.594 0.0
4.234 177.828 0.0
4.234 182.062 0.0
4.234 186.296 0.0
4.234 190.53 0.0
4.234 194.764 0.0
4.234 198.998 0.0
4.234 203.232 0.0
4.234 207.466 0.0
4.234 211.7 0.0
4.234 215.934 0.0
4.234 220.168 0.0
4.234 224.402 0.0
4.234 228.636 0.0
4.234 232.87 0.0
4.234 237.10399999999998 0.0
4.234 241.338 0.0
4.234 245.572 0.0
4.234 249.806 0.0
4.234 254.04 0.0
4.234 258.274 0.0
4.234 262.508 0.0
4.234 266.742 0.0
4.234 270.976 0.0
4.234 275.21 0.0
4.234 279.444 0.0
4.234 283.678 0.0
4.234 287.912 0.0
4.234 292.146 0.0
4.234 296.38 0.0
4.234 300.614 0.0
4.234 304.848 0.0
4.234 309.082 0.0
4.234 313.316 0.0
4.234 317.55 0.0
4.234 321.784 0.0
4.234 326.018 0.0
4.234 330.252 0.0
4.234 334.486 0.0
4.234 338.72 0.0
4.234 342.954 0.0
4.234 347.188 0.0
4.234 351.422 0.0
4.234 355.656 0.0
4.234 359.89 0.0
4.234 364.124 0.0
4.234 368.358 0.0
4.234 372.592 0.0
4.234 376.826 0.0
4.234 381.06 0.0
4.234 385.294 0.0
4.234 389.528 0.0
4.234 393.762 0.0
4.234 397.996 0.0
4.234 402.23 0.0
4.234 406.464 0.0
4.234 410.698 0.0
4.234 414.932 0.0
4.234 419.166 0.0
4.234 423.4 0.0
4.234 427.634 0.0
4.234 431.868 0.0
4.234 436.102 0.0
4.234 440.336 0.0
4.234 444.57 0.0
4.234 448.804 0.0
4.234 453.038 0.0
4.234 457.272 0.0
4.234 461.506 0.0
4.234 465.74 0.0
4.234 469.974 0.0
4.234 474.20799999999997 0.0
4.234 478.442 0.0
4.234 482.676 0.0
4.234 486.91 0.0
4.234 491.144 0.0
4.234 495.378 0.0
4.234 499.612 0.0
4.234 503.846 0.0
4.234 508.08 0.0
4.234 512.314 0.0
4.234 516.548 0.0
4.234 520.782 0.0
4.234 525.016 0.0
4.234 529.25 0.0
4.234 533.484 0.0
4.234 537.718 0.0
4.234 541.952 0.0
4.234 546.186 0.0
4.234 550.42 0.0
4.234 554.654 0.0
4.234 558.888 0.0
4.234 563.122 0.0
4.234 567.356 0.0
4.234 571.59 0.0
4.234 575.824 0.0
4.234 580.058 0.0
4.234 584.292 0.0
4.234 588.526 0.0
4.234 592.76 0.0
4.234 596.994 0.0
4.234 601.228 0.0
4.234 605.462 0.0
4.234 609.696 0.0
4.234 613.93 0.0
4.234 618.164 0.0
4.234 622.398 0.0
4.234 626.632 0.0
4.234 630.866 0.0
8.468 0.0 0.0
8.468 4.234 0.0
8.468 8.468 0.0
8.468 12.702 0.0
8.468 16.936 0.0
8.468 21.17 0.0
8.468 25.404 0.0
8.468 29.637999999999998 0.0
8.468 33.872 0.0
8.468 38.106 0.0
8.468 42.34 0.0
8.468 46.574 0.0
8.468 50.808 0.0
8.468 55.042 0.0
8.468 59.275999999999996 0.0
8.468 63.51 0.0
8.468 67.744 0.0
8.468 71.978 0.0
8.468 76.212 0.0
8.468 80.446 0.0
8.468 84.68 0.0
8.468 88.914 0.0
8.468 93.148 0.0
8.468 97.382 0.0
8.468 101.616 0.0
8.468 105.85 0.0
8.468 110.084 0.0
8.468 114.318 0.0
8.468 118.55199999999999 0.0
8.468 122.786 0.0
8.468 127.02 0.0
8.468 131.254 0.0
8.468 135.488 0.0
8.468 139.722 0.0
8.468 143.956 0.0
8.468 148.19 0.0
8.468 152.424 0.0
8.468 156.658 0.0
8.468 160.892 0.0
8.468 165.126 0.0
8.468 169.36 0.0
8.468 173.594 0.0
8.468 177.828 0.0
8.468 182.062 0.0
8.468 186.296 0.0
8.468 190.53 0.0
8.468 194.764 0.0
8.468 198.998 0.0
8.468 203.232 0.0
8.468 207.466 0.0
8.468 211.7 0.0
8.468 215.934 0.0
8.468 220.168 0.0
8.468 224.402 0.0
8.468 228.636 0.0
8.468 232.87 0.0
8.468 237.10399999999998 0.0
8.468 241.338 0.0
8.468 245.572 0.0
8.468 249.806 0.0
8.468 254.04 0.0
8.468 258.274 0.0
8.468 262.508 0.0
8.468 266.742 0.0
8.468 270.976 0.0
8.468 275.21 0.0
8.468 279.444 0.0
8.468 283.678 0.0
8.468 287.912 0.0
8.468 292.146 0.0
8.468 296.38 0.0
8.468 300.614 0.0
8.468 304.848 0.0
8.468 309.082 0.0
8.468 313.316 0.0
8.468 317.55 0.0
8.468 321.784 0.0
8.468 326.018 0.0
8.468 330.252 0.0
8.468 334.486 0.0
8.468 338.72 0.0
8.468 342.954 0.0
8.468 347.188 0.0
8.468 351.422 0.0
8.468 355.656 0.0
8.468 359.89 0.0
8.468 364.124 0.0
8.468 368.358 0.0
8.468 372.592 0.0
8.468 376.826 0.0
8.468 381.06 0.0
8.468 385.294 0.0
8.468 389.528 0.0
8.468 393.762 0.0
8.468 397.996 0.0
8.468 402.23 0.0
8.468 406.464 0.0
8.468 410.698 0.0
8.468 414.932 0.0
8.468 419.166 0.0
8.468 423.4 0.0
8.468 427.634 0.0
8.468 431.868 0.0
8.468 436.102 0.0
8.468 440.336 0.0
8.468 444.57 0.0
8.468 448.804 0.0
8.468 453.038 0.0
8.468 457.272 0.0
8.468 461.506 0.0
8.468 465.74 0.0
8.468 469.974 0.0
8.468 474.20799999999997 0.0
8.468 478.442 0.0
8.468 482.676 0.0
8.468 486.91 0.0
8.468 491.144 0.0
8.468 495.378 0.0
8.468 499.612 0.0
8.468 503.846 0.0
8.468 508.08 0.0
8.468 512.314 0.0
8.468 516.548 0.0
8.468 520.782 0.0
8.468 525.016 0.0
8.468 529.25 0.0
8.468 533.484 0.0
8.468 537.718 0.0
8.468 541.952 0.0
8.468 546.186 0.0
8.468 550.42 0.0
8.468 554.654 0.0
8.468 558.888 0.0
8.468 563.122 0.0
8.468 567.356 0.0
8.468 571.59 0.0
8.468 575.824 0.0
8.468 580.058 0.0
8.468 584.292 0.0
8.468 588.526 0.0
8.468 592.76 0.0
8.468 596.994 0.0
8.468 601.228 0.0
8.468 605.462 0.0
8.468 609.696 0.0
8.468 613.93 0.0
8.468 618.164 0.0
8.468 622.398 0.0
8.468 626.632 0.0
8.468 630.866 0.0
12.702 0.0 0.0
12.702 4.234 0.0
12.702 8.468 0.0
12.702 12.702 0.0
12.702 16.936 0.0
12.702 21.17 0.0
12.702 25.404 0.0
12.702 29.637999999999998 0.0
12.702 33.872 0.0
12.702 38.106 0.0
12.702 42.34 0.0
12.702 46.574 0.0
12.702 50.808 0.0
12.702 55.042 0.0
12.702 59.275999999999996 0.0
12.702 63.51 0.0
12.702 67.744 0.0
12.702 71.978 0.0
12.702 76.212 0.0
12.702 80.446 0.0
12.702 84.68 0.0
12.702 88.914 0.0
12.702 93.148 0.0
12.702 97.382 0.0
12.702 101.616 0.0
12.702 105.85 0.0
12.702 110.084 0.0
12.702 114.318 0.0
12.702 118.55199999999999 0.0
12.702 122.786 0.0
12.702 127.02 0.0
12.702 131.254 0.0
12.702 135.488 0.0
12.702 139.722 0.0
12.702 143.956 0.0
12.702 148.19 0.0
12.702 152.424 0.0
12.702 156.658 0.0
12.702 160.892 0.0
12.702 165.126 0.0
12.702 169.36 0.0
12.702 173.594 0.0
12.702 177.828 0.0
12.702 182.062 0.0
12.702 186.296 0.0
12.702 190.53 0.0
12.702 194.764 0.0
12.702 198.998 0.0
12.702 203.232 0.0
12.702 207.466 0.0
12.702 211.7 0.0
12.702 215.934 0.0
12.702 220.168 0.0
12.702 224.402 0.0
12.702 228.636 0.0
12.702 232.87 0.0
12.702 237.10399999999998 0.0
12.702 241.338 0.0
12.702 245.572 0.0
12.702 249.806 0.0
12.702 254.04 0.0
12.702 258.274 0.0
12.702 262.508 0.0
12.702 266.742 0.0
12.702 270.976 0.0
12.702 275.21 0.0
12.702 279.444 0.0
12.702 283.678 0.0
12.702 287.912 0.0
12.702 292.146 0.0
12.702 296.38 0.0
12.702 300.614 0.0
12.702 304.848 0.0
12.702 309.082 0.0
12.702 313.316 0.0
12.702 317.55 0.0
12.702 321.784 0.0
12.702 326.018 0.0
12.702 330.252 0.0
12.702 334.486 0.0
12.702 338.72 0.0
12.702 342.954 0.0
12.702 347.188 0.0
12.702 351.422 0.0
12.702 355.656 0.0
12.702 359.89 0.0
12.702 364.124 0.0
12.702 368.358 0.0
12.702 372.592 0.0
12.702 376.826 0.0
12.702 381.06 0.0
12.702 385.294 0.0
12.702 389.528 0.0
12.702 393.762 0.0
12.702 397.996 0.0
12.702 402.23 0.0
12.702 406.464 0.0
12.702 410.698 0.0
12.702 414.932 0.0
12.702 419.166 0.0
12.702 423.4 0.0
12.702 427.634 0.0
12.702 431.868 0.0
12.702 436.102 0.0
12.702 440.336 0.0
12.702 444.57 0.0
12.702 448.804 0.0
12.702 453.038 0.0
12.702 457.272 0.0
12.702 461.506 0.0
12.702 465.74 0.0
12.702 469.974 0.0
[...]
POINT_DATA 22500
VECTORS vector float
0.0 0.0 -0.5
-0.42758120771289126 0.0 -0.25918007410058613
-0.488260580296809 0.0 -0.10771075029087518
-0.4993936091443335 0.0 -0.024617537362551706
-0.49852331603925154 0.0 0.038399262560999306
-0.49041547943639263 0.0 0.0974302700867301
-0.47327670804720967 0.0 0.16127354904012065
-0.43987337095855056 0.0 0.23772130220399124
-0.37227723778460553 0.0 0.3337808535962845
-0.2336465361805324 0.0 0.4420512369972956
-1.0129201733105559e-16 0.0 0.5
0.23364653618053255 0.0 0.4420512369972955
0.3722772377846056 0.0 0.3337808535962844
0.43987337095855056 0.0 0.23772130220399135
0.47327670804720967 0.0 0.16127354904012065
0.49041547943639263 0.0 0.09743027008673014
0.49852331603925154 0.0 0.03839926256099935
0.4993936091443335 0.0 -0.024617537362551817
0.48826058029680913 0.0 -0.10771075029087518
0.4275812077128913 0.0 -0.25918007410058597
5.911161481544975e-16 0.0 -0.5
-0.42758120771289115 0.0 -0.25918007410058624
-0.48826058029680913 0.0 -0.10771075029087497
-0.4993936091443335 0.0 -0.0246175373625516
-0.49852331603925154 0.0 0.038399262560999424
-0.49041547943639263 0.0 0.09743027008673001
-0.4732767080472097 0.0 0.1612735490401206
-0.43987337095855067 0.0 0.23772130220399118
-0.3722772377846056 0.0 0.3337808535962844
-0.2336465361805315 0.0 0.44205123699729604
-3.038760519931667e-16 0.0 0.5
0.23364653618053213 0.0 0.4420512369972957
0.37227723778460536 0.0 0.3337808535962847
0.43987337095855056 0.0 0.2377213022039914
0.47327670804720984 0.0 0.16127354904012034
0.49041547943639263 0.0 0.09743027008673016
0.49852331603925154 0.0 0.03839926256099938
0.4993936091443335 0.0 -0.024617537362551605
0.48826058029680913 0.0 -0.10771075029087514
0.4275812077128908 0.0 -0.25918007410058685
1.182232296308995e-15 0.0 -0.5
-0.42758120771289193 0.0 -0.2591800741005851
-0.488260580296809 0.0 -0.10771075029087537
-0.4993936091443335 0.0 -0.024617537362551813
-0.49852331603925143 0.0 0.03839926256099953
-0.49041547943639263 0.0 0.09743027008672998
-0.47327670804720967 0.0 0.16127354904012092
-0.43987337095855067 0.0 0.2377213022039911
-0.37227723778460514 0.0 0.3337808535962849
-0.23364653618053163 0.0 0.442051236997296
-5.064600866552779e-16 0.0 0.5
0.23364653618053305 0.0 0.44205123699729526
0.3722772377846053 0.0 0.3337808535962848
0.4398733709585508 0.0 0.237721302203991
0.47327670804720967 0.0 0.16127354904012078
0.4904154794363925 0.0 0.09743027008673058
0.49852331603925154 0.0 0.038399262560999424
0.4993936091443335 0.0 -0.024617537362551917
0.48826058029680885 0.0 -0.1077107502908762
0.42758120771289093 0.0 -0.25918007410058674
1.7733484444634923e-15 0.0 -0.5
-0.4275812077128919 0.0 -0.2591800741005852
-0.488260580296809 0.0 -0.10771075029087544
-0.4993936091443335 0.0 -0.024617537362551453
-0.49852331603925154 0.0 0.03839926256099916
-0.49041547943639263 0.0 0.09743027008673029
-0.47327670804720984 0.0 0.16127354904012048
-0.43987337095855045 0.0 0.23772130220399157
-0.37227723778460464 0.0 0.3337808535962855
-0.23364653618053174 0.0 0.4420512369972959
-7.090441213173891e-16 0.0 0.5
0.23364653618053288 0.0 0.4420512369972953
0.37227723778460514 0.0 0.3337808535962848
0.43987337095855067 0.0 0.23772130220399101
0.47327670804720967 0.0 0.16127354904012084
0.4904154794363925 0.0 0.09743027008673061
0.49852331603925154 0.0 0.0383992625609995
0.4993936091443335 0.0 -0.024617537362551917
0.4882605802968088 0.0 -0.10771075029087616
0.42758120771289104 0.0 -0.2591800741005866
2.36446459261799e-15 0.0 -0.5
-0.42758120771289015 0.0 -0.2591800741005881
-0.4882605802968093 0.0 -0.10771075029087436
-0.4993936091443335 0.0 -0.0246175373625515
-0.49852331603925154 0.0 0.03839926256099912
-0.49041547943639263 0.0 0.09743027008673025
-0.47327670804720984 0.0 0.16127354904012042
-0.43987337095855045 0.0 0.23772130220399149
-0.37227723778460475 0.0 0.3337808535962854
-0.23364653618053197 0.0 0.4420512369972958
-9.116281559795003e-16 0.0 0.5
0.23364653618053058 0.0 0.44205123699729654
0.3722772377846062 0.0 0.33378085359628373
0.43987337095855067 0.0 0.23772130220399107
0.47327670804720967 0.0 0.1612735490401209
0.4904154794363925 0.0 0.09743027008673065
0.49852331603925154 0.0 0.03839926256099889
0.4993936091443335 0.0 -0.024617537362551817
0.4882605802968089 0.0 -0.10771075029087601
0.42758120771289115 0.0 -0.25918007410058647
2.9555807407724878e-15 0.0 -0.5
-0.42758120771289315 0.0 -0.2591800741005831
-0.4882605802968092 0.0 -0.10771075029087449
-0.4993936091443336 0.0 -0.02461753736255082
-0.49852331603925154 0.0 0.03839926256099908
-0.49041547943639263 0.0 0.0974302700867302
-0.47327670804720956 0.0 0.16127354904012117
-0.43987337095855006 0.0 0.2377213022039924
-0.37227723778460586 0.0 0.3337808535962841
-0.23364653618053208 0.0 0.44205123699729576
-4.052704625977973e-15 0.0 0.5
0.23364653618053474 0.0 0.4420512369972944
0.37227723778460503 0.0 0.33378085359628495
0.43987337095855067 0.0 0.23772130220399118
0.4732767080472099 0.0 0.16127354904012017
0.49041547943639247 0.0 0.09743027008673072
0.4985233160392516 0.0 0.03839926256099824
0.4993936091443335 0.0 -0.024617537362551765
0.4882605802968089 0.0 -0.10771075029087587
0.4275812077128927 0.0 -0.2591800741005838
3.5466968889269847e-15 0.0 -0.5
-0.4275812077128915 0.0 -0.25918007410058574
-0.4882605802968092 0.0 -0.10771075029087453
-0.49939360914433356 0.0 -0.02461753736255087
-0.49852331603925154 0.0 0.03839926256099904
-0.49041547943639263 0.0 0.09743027008673014
-0.47327670804720956 0.0 0.1612735490401211
-0.43987337095855006 0.0 0.23772130220399226
-0.37227723778460586 0.0 0.333780853596284
-0.23364653618053222 0.0 0.44205123699729565
1.6216962100326387e-15 0.0 0.5
0.23364653618053455 0.0 0.44205123699729443
0.372277237784605 0.0 0.333780853596285
0.43987337095855056 0.0 0.23772130220399124
0.4732767080472099 0.0 0.16127354904012026
0.49041547943639247 0.0 0.09743027008673075
0.4985233160392516 0.0 0.03839926256099828
0.4993936091443335 0.0 -0.024617537362551713
0.4882605802968089 0.0 -0.10771075029087583
0.42758120771289276 0.0 -0.2591800741005836
4.1378130370814824e-15 0.0 -0.5
-0.4275812077128913 0.0 -0.2591800741005861
-0.4882605802968092 0.0 -0.10771075029087454
-0.49939360914433356 0.0 -0.02461753736255092
-0.49852331603925154 0.0 0.038399262560998966
-0.49041547943639263 0.0 0.0974302700867301
-0.47327670804720956 0.0 0.16127354904012106
-0.43987337095855006 0.0 0.23772130220399226
-0.37227723778460603 0.0 0.3337808535962839
-0.23364653618053238 0.0 0.4420512369972956
0.0 0.42758120771289126 -0.25918007410058613
-0.33014787183525646 0.33014787183525646 -0.17889875752867063
-0.4366370691233329 0.22955369194264877 -0.08156698095973214
-0.46696146190465876 0.1783634070112404 -0.011553706557055505
-0.47347985931428865 0.15384293206079788 0.04635919626846579
-0.4676272464838735 0.14450476619627928 0.10219163807508581
-0.44967373773062363 0.14610785426734982 0.16262233707815538
-0.4130814332917746 0.1577830673959355 0.2333843034840665
-0.3416324803871914 0.17960682384997617 0.317850023078525
-0.2071340083362316 0.20713400833623152 0.40520489283957556
-8.789394799377144e-17 0.22178413932648613 0.4481202913763332
0.20713400833623177 0.20713400833623152 0.4052048928395755
0.3416324803871915 0.17960682384997617 0.317850023078525
0.4130814332917746 0.15778306739593553 0.23338430348406655
0.44967373773062363 0.14610785426734982 0.16262233707815538
0.4676272464838735 0.14450476619627928 0.10219163807508584
0.47347985931428865 0.15384293206079788 0.04635919626846583
0.46696146190465876 0.1783634070112405 -0.011553706557055647
0.4366370691233329 0.22955369194264877 -0.08156698095973214
0.3301478718352567 0.3301478718352564 -0.1788987575286706
3.3890431072266237e-16 0.42758120771289126 -0.25918007410058613
-0.33014787183525635 0.33014787183525657 -0.1788987575286707
-0.43663706912333305 0.22955369194264866 -0.08156698095973197
-0.46696146190465876 0.17836340701124034 -0.011553706557055366
-0.47347985931428865 0.15384293206079785 0.0463591962684659
-0.4676272464838735 0.14450476619627928 0.10219163807508574
-0.44967373773062363 0.14610785426734982 0.1626223370781553
-0.4130814332917746 0.15778306739593548 0.2333843034840664
-0.3416324803871915 0.17960682384997617 0.317850023078525
-0.2071340083362308 0.20713400833623166 0.4052048928395759
-2.636818439813143e-16 0.22178413932648613 0.4481202913763332
0.20713400833623136 0.20713400833623158 0.4052048928395756
0.3416324803871913 0.17960682384997625 0.31785002307852517
0.4130814332917745 0.15778306739593553 0.23338430348406664
0.44967373773062375 0.14610785426734976 0.16262233707815504
0.46762724648387344 0.14450476619627925 0.10219163807508587
0.47347985931428865 0.15384293206079785 0.04635919626846586
0.46696146190465876 0.17836340701124037 -0.011553706557055413
0.436637069123333 0.2295536919426487 -0.081566980959732
0.33014787183525574 0.330147871835257 -0.1788987575286711
6.778086214453247e-16 0.42758120771289126 -0.25918007410058613
-0.3301478718352573 0.330147871835256 -0.1788987575286702
-0.4366370691233329 0.22955369194264888 -0.08156698095973218
-0.46696146190465876 0.17836340701124048 -0.0115537065570556
-0.47347985931428865 0.1538429320607978 0.046359196268466005
-0.4676272464838735 0.14450476619627928 0.1021916380750857
-0.4496737377306236 0.14610785426734982 0.1626223370781556
-0.4130814332917747 0.15778306739593548 0.2333843034840664
-0.341632480387191 0.17960682384997628 0.31785002307852533
-0.20713400833623088 0.2071340083362316 0.40520489283957584
-4.394697399688572e-16 0.22178413932648613 0.4481202913763332
0.2071340083362322 0.20713400833623144 0.4052048928395753
0.34163248038719124 0.17960682384997628 0.3178500230785253
0.4130814332917748 0.15778306739593548 0.23338430348406625
0.4496737377306236 0.14610785426734982 0.16262233707815546
0.4676272464838734 0.14450476619627925 0.10219163807508626
0.47347985931428865 0.15384293206079785 0.04635919626846594
0.46696146190465865 0.1783634070112405 -0.011553706557055737
0.43663706912333244 0.2295536919426494 -0.08156698095973283
0.3301478718352559 0.3301478718352569 -0.17889875752867104
1.0167129321679872e-15 0.42758120771289126 -0.25918007410058613
-0.3301478718352572 0.3301478718352561 -0.17889875752867027
-0.4366370691233327 0.22955369194264896 -0.08156698095973232
-0.46696146190465876 0.17836340701124032 -0.011553706557055274
-0.4734798593142887 0.15384293206079794 0.04635919626846566
-0.46762724648387344 0.14450476619627925 0.10219163807508598
-0.44967373773062375 0.1461078542673498 0.16262233707815518
-0.41308143329177444 0.15778306739593556 0.23338430348406675
-0.3416324803871905 0.17960682384997645 0.31785002307852583
-0.20713400833623102 0.2071340083362316 0.40520489283957584
-6.152576359564001e-16 0.22178413932648613 0.4481202913763332
0.20713400833623205 0.20713400833623144 0.40520489283957534
0.3416324803871911 0.17960682384997628 0.31785002307852533
0.4130814332917747 0.15778306739593548 0.2333843034840663
0.44967373773062363 0.14610785426734985 0.16262233707815554
0.4676272464838734 0.14450476619627925 0.1021916380750863
0.47347985931428865 0.15384293206079783 0.04635919626846597
0.46696146190465865 0.1783634070112405 -0.011553706557055647
0.43663706912333244 0.22955369194264938 -0.08156698095973282
0.33014787183525607 0.3301478718352568 -0.178898757528671
1.3556172428906495e-15 0.42758120771289126 -0.25918007410058613
-0.33014787183525485 0.3301478718352576 -0.1788987575286716
-0.4366370691233333 0.2295536919426482 -0.08156698095973147
-0.46696146190465876 0.17836340701124032 -0.011553706557055364
-0.4734798593142887 0.15384293206079794 0.046359196268465616
-0.46762724648387344 0.14450476619627925 0.10219163807508594
-0.44967373773062375 0.1461078542673498 0.16262233707815513
-0.4130814332917745 0.15778306739593556 0.2333843034840667
-0.34163248038719063 0.17960682384997642 0.3178500230785257
-0.20713400833623122 0.2071340083362316 0.4052048928395758
-7.91045531943943e-16 0.22178413932648613 0.4481202913763332
0.20713400833622994 0.20713400833623177 0.40520489283957634
0.34163248038719213 0.17960682384997598 0.31785002307852434
0.4130814332917747 0.15778306739593548 0.23338430348406633
0.4496737377306236 0.14610785426734982 0.1626223370781556
0.4676272464838734 0.14450476619627925 0.10219163807508633
0.4734798593142887 0.15384293206079802 0.046359196268465366
0.46696146190465876 0.1783634070112405 -0.011553706557055647
0.4366370691233325 0.22955369194264932 -0.08156698095973268
0.33014787183525623 0.33014787183525673 -0.1788987575286708
1.694521553613312e-15 0.42758120771289126 -0.25918007410058613
-0.330147871835259 0.3301478718352548 -0.1788987575286692
-0.4366370691233333 0.22955369194264824 -0.08156698095973149
-0.4669614619046589 0.17836340701123996 -0.01155370655705471
-0.4734798593142887 0.15384293206079794 0.04635919626846558
-0.46762724648387344 0.14450476619627925 0.10219163807508591
-0.44967373773062347 0.14610785426734987 0.16262233707815585
-0.41308143329177394 0.15778306739593573 0.23338430348406747
-0.34163248038719185 0.17960682384997612 0.31785002307852467
-0.2071340083362313 0.20713400833623158 0.40520489283957567
-3.5166464151426607e-15 0.22178413932648613 0.4481202913763332
0.20713400833623377 0.20713400833623122 0.4052048928395746
0.34163248038719096 0.1796068238499763 0.3178500230785254
0.4130814332917746 0.15778306739593548 0.2333843034840664
0.4496737377306238 0.14610785426734973 0.16262233707815488
0.4676272464838734 0.14450476619627925 0.1021916380750864
0.4734798593142887 0.15384293206079816 0.04635919626846479
0.46696146190465876 0.17836340701124048 -0.011553706557055555
0.4366370691233325 0.2295536919426493 -0.08156698095973267
0.3301478718352584 0.3301478718352552 -0.1788987575286696
2.0334258643359743e-15 0.42758120771289126 -0.25918007410058613
-0.3301478718352567 0.3301478718352563 -0.17889875752867054
-0.4366370691233333 0.22955369194264832 -0.08156698095973164
-0.4669614619046589 0.17836340701123998 -0.011553706557054712
-0.47347985931428865 0.15384293206079794 0.046359196268465505
-0.4676272464838735 0.14450476619627928 0.10219163807508584
-0.44967373773062347 0.14610785426734985 0.16262233707815577
-0.41308143329177394 0.1577830673959357 0.2333843034840674
-0.34163248038719185 0.1796068238499761 0.3178500230785246
-0.20713400833623147 0.20713400833623158 0.4052048928395756
1.4071916632921461e-15 0.22178413932648613 0.4481202913763332
0.20713400833623363 0.20713400833623127 0.4052048928395747
0.3416324803871909 0.17960682384997634 0.31785002307852556
0.4130814332917746 0.1577830673959355 0.2333843034840665
0.4496737377306238 0.14610785426734976 0.16262233707815496
0.4676272464838734 0.14450476619627925 0.10219163807508644
0.4734798593142887 0.15384293206079816 0.04635919626846487
0.46696146190465876 0.17836340701124043 -0.011553706557055553
0.4366370691233326 0.22955369194264924 -0.08156698095973265
0.33014787183525857 0.330147871835255 -0.1788987575286695
2.3723301750586364e-15 0.42758120771289126 -0.25918007410058613
-0.33014787183525657 0.33014787183525646 -0.17889875752867063
-0.4366370691233332 0.22955369194264835 -0.08156698095973164
-0.4669614619046589 0.17836340701124 -0.011553706557054804
-0.47347985931428865 0.15384293206079797 0.04635919626846547
-0.4676272464838735 0.14450476619627928 0.10219163807508581
-0.44967373773062347 0.14610785426734985 0.16262233707815574
-0.41308143329177405 0.15778306739593573 0.2333843034840674
-0.341632480387192 0.17960682384997606 0.3178500230785245
-0.20713400833623158 0.20713400833623152 0.40520489283957556
0.0 0.488260580296809 -0.10771075029087518
-0.22955369194264877 0.4366370691233329 -0.08156698095973214
-0.35285949036791925 0.35285949036791925 -0.03131070287592742
-0.40422242137254366 0.2936847799004561 0.018801173222392695
-0.42151026247066176 0.2605076688137582 0.06681955642725453
-0.41933002499922123 0.24647600453797633 0.11580979803603833
-0.40028605997268607 0.2473903902858988 0.16902385922032964
-0.3596598446427324 0.2613081727487461 0.22882927043164084
-0.2859371582573852 0.28593715825738514 0.2940746215765348
-0.16475928567197978 0.31339078451694213 0.3530447478220211
-6.800882110251303e-17 0.32641723391337124 0.37875029954356926
0.16475928567197992 0.31339078451694213 0.353044747822021
0.2859371582573852 0.2859371582573851 0.29407462157653474
0.3596598446427324 0.2613081727487462 0.2288292704316409
0.40028605997268607 0.2473903902858988 0.16902385922032964
0.41933002499922123 0.24647600453797633 0.11580979803603839
0.42151026247066176 0.2605076688137582 0.0668195564272546
0.4042224213725436 0.2936847799004562 0.018801173222392588
0.35285949036791925 0.3528594903679192 -0.03131070287592736
0.22955369194264894 0.43663706912333283 -0.08156698095973214
2.0345755681287053e-16 0.488260580296809 -0.10771075029087518
-0.22955369194264866 0.436637069123333 -0.08156698095973217
-0.35285949036791947 0.35285949036791914 -0.03131070287592731
-0.40422242137254377 0.29368477990045605 0.01880117322239277
-0.4215102624706618 0.2605076688137582 0.06681955642725465
-0.41933002499922123 0.24647600453797633 0.1158097980360383
-0.40028605997268607 0.2473903902858988 0.16902385922032956
-0.35965984464273243 0.2613081727487461 0.22882927043164075
-0.2859371582573852 0.2859371582573851 0.29407462157653474
-0.1647592856719791 0.31339078451694224 0.3530447478220213
-2.040264633075391e-16 0.32641723391337124 0.37875029954356926
0.1647592856719796 0.3133907845169422 0.35304474782202117
0.285937158257385 0.2859371582573852 0.2940746215765349
0.3596598446427323 0.2613081727487462 0.22882927043164092
0.4002860599726862 0.24739039028589876 0.16902385922032936
0.41933002499922123 0.24647600453797633 0.11580979803603841
0.4215102624706618 0.2605076688137582 0.06681955642725461
0.40422242137254366 0.29368477990045605 0.01880117322239277
0.35285949036791936 0.3528594903679192 -0.03131070287592736
0.22955369194264807 0.4366370691233332 -0.08156698095973232
4.0691511362574105e-16 0.488260580296809 -0.10771075029087518
-0.2295536919426495 0.43663706912333256 -0.08156698095973196
-0.35285949036791914 0.3528594903679193 -0.03131070287592747
-0.4042224213725436 0.29368477990045616 0.018801173222392623
-0.4215102624706618 0.2605076688137581 0.06681955642725473
-0.41933002499922123 0.24647600453797633 0.11580979803603825
-0.40028605997268596 0.24739039028589882 0.16902385922032984
-0.35965984464273254 0.2613081727487461 0.22882927043164075
-0.2859371582573848 0.28593715825738525 0.2940746215765351
-0.1647592856719792 0.31339078451694224 0.3530447478220213
-3.400441055125652e-16 0.32641723391337124 0.37875029954356926
0.1647592856719803 0.3133907845169421 0.35304474782202094
0.2859371582573849 0.2859371582573852 0.29407462157653497
0.3596598446427326 0.2613081727487461 0.22882927043164067
0.40028605997268607 0.24739039028589882 0.16902385922032975
0.4193300249992211 0.24647600453797625 0.11580979803603872
0.4215102624706618 0.2605076688137582 0.06681955642725465
0.40422242137254355 0.2936847799004562 0.018801173222392508
0.3528594903679186 0.3528594903679199 -0.031310702875927895
0.22955369194264819 0.43663706912333317 -0.0815669809597323
6.103726704386115e-16 0.488260580296809 -0.10771075029087518
-0.2295536919426494 0.43663706912333267 -0.08156698095973197
-0.352859490367919 0.35285949036791947 -0.031310702875927576
-0.40422242137254377 0.293684779900456 0.018801173222392845
-0.42151026247066176 0.2605076688137583 0.06681955642725443
-0.4193300249992212 0.2464760045379763 0.1158097980360385
-0.4002860599726862 0.2473903902858988 0.1690238592203295
-0.35965984464273226 0.26130817274874624 0.22882927043164106
-0.2859371582573843 0.2859371582573854 0.2940746215765354
-0.1647592856719793 0.31339078451694224 0.3530447478220213
-4.760617477175913e-16 0.32641723391337124 0.37875029954356926
0.16475928567198017 0.3133907845169421 0.35304474782202094
0.28593715825738486 0.28593715825738525 0.294074621576535
0.3596598446427326 0.2613081727487461 0.2288292704316407
0.400286059972686 0.24739039028589888 0.1690238592203298
0.4193300249992211 0.24647600453797625 0.11580979803603877