# vtk DataFile Version 2.0
test
ASCII
DATASET UNSTRUCTURED_GRID
POINTS 6400 float
0.0 0.0 0.0
0.0 4.165 0.0
0.0 8.33 0.0
0.0 12.495000000000001 0.0
0.0 16.66 0.0
0.0 20.825 0.0
0.0 24.990000000000002 0.0
0.0 29.155 0.0
0.0 33.32 0.0
0.0 37.485 0.0
0.0 41.65 0.0
0.0 45.815 0.0
0.0 49.980000000000004 0.0
0.0 54.145 0.0
0.0 58.31 0.0
0.0 62.475 0.0
0.0 66.64 0.0
0.0 70.805 0.0
0.0 74.97 0.0
0.0 79.135 0.0
0.0 83.3 0.0
0.0 87.465 0.0
0.0 91.63 0.0
0.0 95.795 0.0
0.0 99.96000000000001 0.0
0.0 104.125 0.0
0.0 108.29 0.0
0.0 112.455 0.0
0.0 116.62 0.0
0.0 120.785 0.0
0.0 124.95 0.0
0.0 129.115 0.0
0.0 133.28 0.0
0.0 137.445 0.0
0.0 141.61 0.0
0.0 145.775 0.0
0.0 149.94 0.0
0.0 154.105 0.0
0.0 158.27 0.0
0.0 162.435 0.0
0.0 166.6 0.0
0.0 170.76500000000001 0.0
0.0 174.93 0.0
0.0 179.095 0.0
0.0 183.26 0.0
0.0 187.425 0.0
0.0 191.59 0.0
0.0 195.755 0.0
0.0 199.92000000000002 0.0
0.0 204.085 0.0
0.0 208.25 0.0
0.0 212.415 0.0
0.0 216.58 0.0
0.0 220.745 0.0
0.0 224.91 0.0
0.0 229.075 0.0
0.0 233.24 0.0
0.0 237.405 0.0
0.0 241.57 0.0
0.0 245.735 0.0
0.0 249.9 0.0
0.0 254.065 0.0
0.0 258.23 0.0
0.0 262.395 0.0
0.0 266.56 0.0
0.0 270.725 0.0
0.0 274.89 0.0
0.0 279.055 0.0
0.0 283.22 0.0
0.0 287.385 0.0
0.0 291.55 0.0
0.0 295.715 0.0
0.0 299.88 0.0
0.0 304.045 0.0
0.0 308.21 0.0
0.0 312.375 0.0
0.0 316.54 0.0
0.0 320.705 0.0
0.0 324.87 0.0
0.0 329.035 0.0
4.165 0.0 0.0
4.165 4.165 0.0
4.165 8.33 0.0
4.165 12.495000000000001 0.0
4.165 16.66 0.0
4.165 20.825 0.0
4.165 24.990000000000002 0.0
4.165 29.155 0.0
4.165 33.32 0.0
4.165 37.485 0.0
4.165 41.65 0.0
4.165 45.815 0.0
4.165 49.980000000000004 0.0
4.165 54.145 0.0
4.165 58.31 0.0
4.165 62.475 0.0
4.165 66.64 0.0
4.165 70.805 0.0
4.165 74.97 0.0
4.165 79.135 0.0
4.165 83.3 0.0
4.165 87.465 0.0
4.165 91.63 0.0
4.165 95.795 0.0
4.165 99.96000000000001 0.0
4.165 104.125 0.0
4.165 108.29 0.0
4.165 112.455 0.0
4.165 116.62 0.0
4.165 120.785 0.0
4.165 124.95 0.0
4.165 129.115 0.0
4.165 133.28 0.0
4.165 137.445 0.0
4.165 141.61 0.0
4.165 145.775 0.0
4.165 149.94 0.0
4.165 154.105 0.0
4.165 158.27 0.0
4.165 162.435 0.0
4.165 166.6 0.0
4.165 170.76500000000001 0.0
4.165 174.93 0.0
4.165 179.095 0.0
4.165 183.26 0.0
4.165 187.425 0.0
4.165 191.59 0.0
4.165 195.755 0.0
4.165 199.92000000000002 0.0
4.165 204.085 0.0
4.165 208.25 0.0
4.165 212.415 0.0
4.165 216.58 0.0
4.165 220.745 0.0
4.165 224.91 0.0
4.165 229.075 0.0
4.165 233.24 0.0
4.165 237.405 0.0
4.165 241.57 0.0
4.165 245.735 0.0
4.165 249.9 0.0
4.165 254.065 0.0
4.165 258.23 0.0
4.165 262.395 0.0
4.165 266.56 0.0
4.165 270.725 0.0
4.165 274.89 0.0
4.165 279.055 0.0
4.165 283.22 0.0
4.165 287.385 0.0
4.165 291.55 0.0
4.165 295.715 0.0
4.165 299.88 0.0
4.165 304.045 0.0
4.165 308.21 0.0
4.165 312.375 0.0
4.165 316.54 0.0
4.165 320.705 0.0
4.165 324.87 0.0
4.165 329.035 0.0
8.33 0.0 0.0
8.33 4.165 0.0
8.33 8.33 0.0
8.33 12.495000000000001 0.0
8.33 16.66 0.0
8.33 20.825 0.0
8.33 24.990000000000002 0.0
8.33 29.155 0.0
8.33 33.32 0.0
8.33 37.485 0.0
8.33 41.65 0.0
8.33 45.815 0.0
8.33 49.980000000000004 0.0
8.33 54.145 0.0
8.33 58.31 0.0
8.33 62.475 0.0
8.33 66.64 0.0
8.33 70.805 0.0
8.33 74.97 0.0
8.33 79.135 0.0
8.33 83.3 0.0
8.33 87.465 0.0
8.33 91.63 0.0
8.33 95.795 0.0
8.33 99.96000000000001 0.0
8.33 104.125 0.0
8.33 108.29 0.0
8.33 112.455 0.0
8.33 116.62 0.0
8.33 120.785 0.0
8.33 124.95 0.0
8.33 129.115 0.0
8.33 133.28 0.0
8.33 137.445 0.0
8.33 141.61 0.0
8.33 145.775 0.0
8.33 149.94 0.0
8.33 154.105 0.0
8.33 158.27 0.0
8.33 162.435 0.0
8.33 166.6 0.0
8.33 170.76500000000001 0.0
8.33 174.93 0.0
8.33 179.095 0.0
8.33 183.26 0.0
8.33 187.425 0.0
8.33 191.59 0.0
8.33 195.755 0.0
8.33 199.92000000000002 0.0
8.33 204.085 0.0
8.33 208.25 0.0
8.33 212.415 0.0
8.33 216.58 0.0
8.33 220.745 0.0
8.33 224.91 0.0
8.33 229.075 0.0
8.33 233.24 0.0
8.33 237.405 0.0
8.33 241.57 0.0
8.33 245.735 0.0
8.33 249.9 0.0
8.33 254.065 0.0
8.33 258.23 0.0
8.33 262.395 0.0
8.33 266.56 0.0
8.33 270.725 0.0
8.33 274.89 0.0
8.33 279.055 0.0
8.33 283.22 0.0
8.33 287.385 0.0
8.33 291.55 0.0
8.33 295.715 0.0
8.33 299.88 0.0
8.33 304.045 0.0
8.33 308.21 0.0
8.33 312.375 0.0
8.33 316.54 0.0
8.33 320.705 0.0
8.33 324.87 0.0
8.33 329.035 0.0
12.495000000000001 0.0 0.0
12.495000000000001 4.165 0.0
12.495000000000001 8.33 0.0
12.495000000000001 12.495000000000001 0.0
12.495000000000001 16.66 0.0
12.495000000000001 20.825 0.0
12.495000000000001 24.990000000000002 0.0
12.495000000000001 29.155 0.0
12.495000000000001 33.32 0.0
12.495000000000001 37.485 0.0
12.495000000000001 41.65 0.0
12.495000000000001 45.815 0.0
12.495000000000001 49.980000000000004 0.0
12.495000000000001 54.145 0.0
12.495000000000001 58.31 0.0
12.495000000000001 62.475 0.0
12.495000000000001 66.64 0.0
12.495000000000001 70.805 0.0
12.495000000000001 74.97 0.0
12.495000000000001 79.135 0.0
12.495000000000001 83.3 0.0
12.495000000000001 87.465 0.0
12.495000000000001 91.63 0.0
12.495000000000001 95.795 0.0
12.495000000000001 99.96000000000001 0.0
12.495000000000001 104.125 0.0
12.495000000000001 108.29 0.0
12.495000000000001 112.455 0.0
12.495000000000001 116.62 0.0
12.495000000000001 120.785 0.0
12.495000000000001 124.95 0.0
12.495000000000001 129.115 0.0
12.495000000000001 133.28 0.0
12.495000000000001 137.445 0.0
12.495000000000001 141.61 0.0
12.495000000000001 145.775 0.0
12.495000000000001 149.94 0.0
12.495000000000001 154.105 0.0
12.495000000000001 158.27 0.0
12.495000000000001 162.435 0.0
12.495000000000001 166.6 0.0
12.495000000000001 170.76500000000001 0.0
12.495000000000001 174.93 0.0
12.495000000000001 179.095 0.0
12.495000000000001 183.26 0.0
12.495000000000001 187.425 0.0
12.495000000000001 191.59 0.0
12.495000000000001 195.755 0.0
12.495000000000001 199.92000000000002 0.0
12.495000000000001 204.085 0.0
12.495000000000001 208.25 0.0
12.495000000000001 212.415 0.0
12.495000000000001 216.58 0.0
12.495000000000001 220.745 0.0
12.495000000000001 224.91 0.0
12.495000000000001 229.075 0.0
12.495000000000001 233.24 0.0
12.495000000000001 237.405 0.0
12.495000000000001 241.57 0.0
12.495000000000001 245.735 0.0
12.495000000000001 249.9 0.0
12.495000000000001 254.065 0.0
12.495000000000001 258.23 0.0
12.495000000000001 262.395 0.0
12.495000000000001 266.56 0.0
12.495000000000001 270.725 0.0
12.495000000000001 274.89 0.0
12.495000000000001 279.055 0.0
12.495000000000001 283.22 0.0
12.495000000000001 287.385 0.0
12.495000000000001 291.55 0.0
12.495000000000001 295.715 0.0
12.495000000000001 299.88 0.0
12.495000000000001 304.045 0.0
12.495000000000001 308.21 0.0
12.495000000000001 312.375 0.0
12.495000000000001 316.54 0.0
12.495000000000001 320.705 0.0
12.495000000000001 324.87 0.0
12.495000000000001 329.035 0.0
16.66 0.0 0.0
16.66 4.165 0.0
16.66 8.33 0.0
16.66 12.495000000000001 0.0
16.66 16.66 0.0
16.66 20.825 0.0
16.66 24.990000000000002 0.0
16.66 29.155 0.0
16.66 33.32 0.0
16.66 37.485 0.0
16.66 41.65 0.0
16.66 45.815 0.0
16.66 49.980000000000004 0.0
16.66 54.145 0.0
16.66 58.31 0.0
16.66 62.475 0.0
16.66 66.64 0.0
16.66 70.805 0.0
16.66 74.97 0.0
16.66 79.135 0.0
16.66 83.3 0.0
16.66 87.465 0.0
16.66 91.63 0.0
16.66 95.795 0.0
16.66 99.96000000000001 0.0
16.66 104.125 0.0
16.66 108.29 0.0
16.66 112.455 0.0
16.66 116.62 0.0
16.66 120.785 0.0
16.66 124.95 0.0
16.66 129.115 0.0
16.66 133.28 0.0
16.66 137.445 0.0
16.66 141.61 0.0
16.66 145.775 0.0
16.66 149.94 0.0
16.66 154.105 0.0
16.66 158.27 0.0
16.66 162.435 0.0
16.66 166.6 0.0
16.66 170.76500000000001 0.0
16.66 174.93 0.0
16.66 179.095 0.0
16.66 183.26 0.0
16.66 187.425 0.0
16.66 191.59 0.0
16.66 195.755 0.0
16.66 199.92000000000002 0.0
16.66 204.085 0.0
16.66 208.25 0.0
16.66 212.415 0.0
16.66 216.58 0.0
16.66 220.745 0.0
16.66 224.91 0.0
16.66 229.075 0.0
16.66 233.24 0.0
16.66 237.405 0.0
16.66 241.57 0.0
16.66 245.735 0.0
16.66 249.9 0.0
16.66 254.065 0.0
16.66 258.23 0.0
16.66 262.395 0.0
16.66 266.56 0.0
16.66 270.725 0.0
16.66 274.89 0.0
16.66 279.055 0.0
16.66 283.22 0.0
16.66 287.385 0.0
16.66 291.55 0.0
16.66 295.715 0.0
16.66 299.88 0.0
16.66 304.045 0.0
16.66 308.21 0.0
16.66 312.375 0.0
16.66 316.54 0.0
16.66 320.705 0.0
16.66 324.87 0.0
16.66 329.035 0.0
20.825 0.0 0.0
20.825 4.165 0.0
20.825 8.33 0.0
20.825 12.495000000000001 0.0
20.825 16.66 0.0
20.825 20.825 0.0
20.825 24.990000000000002 0.0
20.825 29.155 0.0
20.825 33.32 0.0
20.825 37.485 0.0
20.825 41.65 0.0
20.825 45.815 0.0
20.825 49.980000000000004 0.0
20.825 54.145 0.0
20.825 58.31 0.0
20.825 62.475 0.0
20.825 66.64 0.0
20.825 70.805 0.0
20.825 74.97 0.0
20.825 79.135 0.0
20.825 83.3 0.0
20.825 87.465 0.0
20.825 91.63 0.0
20.825 95.795 0.0
20.825 99.96000000000001 0.0
20.825 104.125 0.0
20.825 108.29 0.0
20.825 112.455 0.0
20.825 116.62 0.0
20.825 120.785 0.0
20.825 124.95 0.0
20.825 129.115 0.0
20.825 133.28 0.0
20.825 137.445 0.0
20.825 141.61 0.0
20.825 145.775 0.0
20.825 149.94 0.0
20.825 154.105 0.0
20.825 158.27 0.0
20.825 162.435 0.0
20.825 166.6 0.0
20.825 170.76500000000001 0.0
20.825 174.93 0.0
20.825 179.095 0.0
20.825 183.26 0.0
20.825 187.425 0.0
20.825 191.59 0.0
20.825 195.755 0.0
20.825 199.92000000000002 0.0
20.825 204.085 0.0
20.825 208.25 0.0
20.825 212.415 0.0
20.825 216.58 0.0
20.825 220.745 0.0
20.825 224.91 0.0
20.825 229.075 0.0
20.825 233.24 0.0
20.825 237.405 0.0
20.825 241.57 0.0
20.825 245.735 0.0
20.825 249.9 0.0
20.825 254.065 0.0
20.825 258.23 0.0
20.825 262.395 0.0
20.825 266.56 0.0
20.825 270.725 0.0
20.825 274.89 0.0
20.825 279.055 0.0
20.825 283.22 0.0
20.825 287.385 0.0
20.825 291.55 0.0
20.825 295.715 0.0
20.825 299.88 0.0
20.825 304.045 0.0
20.825 308.21 0.0
20.825 312.375 0.0
20.825 316.54 0.0
20.825 320.705 0.0
20.825 324.87 0.0
20.825 329.035 0.0
24.990000000000002 0.0 0.0
24.990000000000002 4.165 0.0
24.990000000000002 8.33 0.0
24.990000000000002 12.495000000000001 0.0
24.990000000000002 16.66 0.0
24.990000000000002 20.825 0.0
24.990000000000002 24.990000000000002 0.0
24.990000000000002 29.155 0.0
24.990000000000002 33.32 0.0
24.990000000000002 37.485 0.0
24.990000000000002 41.65 0.0
24.990000000000002 45.815 0.0
[...]
POINT_DATA 6400
VECTORS vector float
0.0 0.0 -0.15
-0.12615795015693893 -0.052256333956193037 -0.06207614013176185
-0.05122413602343744 -0.02121773186175201 0.1393768120717904
0.13570142159294973 0.056209369257108954 0.03042418421865227
0.06011713242190616 0.02490133158013284 -0.13515122668663898
-0.08017276467541874 -0.03320864646150504 -0.12234996364729617
-0.12465427008319882 -0.05163348927617971 0.06553850574426877
0.08330518318278765 0.03450613669028572 0.11987315373174057
0.1124700149854935 0.04658660556729664 -0.08763665848764429
-0.021583643888999422 -0.008940238024254733 -0.14816955983110203
-0.13536505196496976 -0.05607004039522925 -0.03213181097601561
-0.015290202374403058 -0.006333409194907047 0.14908419647742566
0.13851213321846123 0.05737360413231554 -0.004760094551539426
0.03919026202795842 0.01623313804493569 -0.143877060685135
-0.0987877334972401 -0.040919219010655754 -0.10519791455174503
-0.10515399321655791 -0.04355621012798672 0.09770104538795252
0.10918643590011724 0.045226502577009144 0.09237362004426034
0.0956397363065246 0.03961527587994899 -0.10855261745427405
-0.04292741161360229 -0.017781116087926378 -0.14262212045410083
-0.13857638374194697 -0.05740021757053291 0.0013419731219885176
0.021794503720585428 0.009027579026257365 0.14813339402207076
0.13413200490476318 0.05555929557984741 -0.03770636464709555
0.017784940727102534 0.007366763655167483 -0.14875962717277277
-0.11514854149232581 -0.04769608757360242 -0.08346194715174914
-0.07803450998672054 -0.03232295236963837 0.12395903356045697
0.12722502158067495 0.052698329411925274 0.05946999210517018
0.07671918682869541 0.031778127678680955 -0.12491724049778388
-0.0637332065573961 -0.02639915852959934 -0.13319595643577686
-0.13436937109054045 -0.05565761587324512 0.03670288691695686
0.05723877681809279 0.023709077651700744 0.13660747441217916
0.12402658846823286 0.051373495038408566 -0.0669191255208122
-0.003815390668051669 -0.0015803865604587445 -0.1499431397976235
-0.12815027061663595 -0.05308158011119295 -0.057095131086476854
-0.04508865533002228 -0.018676332546861168 0.1418386680814844
0.13677482287324386 0.05665398662527542 0.024144846809534284
0.05647436961344793 0.02339244982036114 -0.13697970239479115
-0.08358209669206741 -0.034620838021433724 -0.11964710897991451
-0.12181751240064048 -0.05045846577089797 0.07151529140377544
0.08838099902770845 0.03660860845336016 0.11553617960609897
0.10969438690793519 0.045436902773468436 -0.09166585704201206
-0.025375021621896424 -0.01051067810130003 -0.14746400890908648
-0.13641119996830747 -0.05650336908646126 -0.026445298355011426
-0.008749860557934544 -0.0036243109119699045 0.14970071579865635
0.1382229041344259 0.057253801523075354 -0.010790318985164594
0.03543848526473584 0.014679101226612671 -0.14501254342062952
-0.10186628403579141 -0.04219439639617469 -0.10170001518929064
-0.10088177995345475 -0.04178660145305918 0.10284331000325653
0.11297204171665601 0.046794551848017986 0.08687685369368121
0.09242737975382538 0.03828467422864289 -0.11176521458418465
-0.04664810931461133 -0.01932227953717472 -0.14124660495339117
-0.138408366713048 -0.057330622638453316 0.007504913837859385
0.028247421325395695 0.011700465015045887 0.1468508845969178
0.1327206352430313 0.05497468712443614 -0.04316267781610164
0.013980283220024595 0.0057908229155511914 -0.14923477493884804
-0.11772319673327192 -0.048762544692837265 -0.07914204436314748
-0.07258078190068765 -0.03006394423090849 0.12778180369663605
0.12952870365493835 0.053652545770480946 0.05332653431283164
0.07322495800389099 0.03033077070941197 -0.1273505000912893
-0.06731995561253516 -0.02788483863306682 -0.1311123920563351
-0.13277513452056922 -0.05499726146433188 0.04296585719462215
0.06311844167033906 0.026144514575709547 0.1335384838865131
0.12176417008781863 0.050436370661478824 -0.07162164056570257
-0.007629539012729026 -0.003160258533726996 -0.14977250381980417
-0.12999536738365727 -0.053845844215983915 -0.05197912580503799
-0.03884679627520984 -0.016090869871936544 0.1439861462985823
0.13759394734880975 0.05699327909232656 0.01787936775384239
0.05280738364549962 0.021873534499405115 -0.13868283499056525
-0.08694334880682299 -0.03601311423392073 -0.11680714747578456
-0.11871688704706032 -0.04917414469760719 0.07738348805213109
0.09325084421922325 0.038625764378343 0.1109609407791358
0.10682813190066955 0.044249661076239205 -0.09554955640530786
-0.029157647148435405 -0.012077492895771145 -0.1466423055537519
-0.13726193693196073 -0.056855755874818545 -0.02065390262370464
-0.0021888979793588696 -0.0009066712297015068 0.14998128774256206
0.1377163861129167 0.057043994888979856 -0.016738567534412233
0.03167380106017364 0.01311971797103124 -0.14602959743408575
-0.1048700089260018 -0.04343857998333748 -0.09805799812810524
-0.09637783187398961 -0.03992100507432046 0.10778509580236532
0.11650475637767051 0.04825785017260447 0.0812269760492049
0.08915546607320156 0.036929403207214426 -0.11483693677571336
-0.09333677792999363 0.03866135928680916 -0.11087626068615096
-0.09886787824400838 0.06421973997529545 0.09274140202214635
0.021323783295587782 0.10221224014442384 0.10769379847800635
0.10242829521242798 0.10945727685007407 -0.005248703120004201
0.006071026464508278 0.055447822719298365 -0.13924324613192732
-0.13974398969772206 0.047053577515268105 0.027524138249500393
-0.02867215761427477 0.08755065429114736 0.11837563225146541
0.07942083050084088 0.1135692676808342 0.057396455648373715
0.07680692461392333 0.08212599075384956 -0.09927747969227317
-0.12186713355081256 0.037572651796561954 -0.07897276490716736
-0.08069812484577164 0.07052735783294638 0.10494619785146954
0.03805932676716337 0.106435891655966 0.09860470888060952
0.10311601855918531 0.10453116907333053 -0.030664660582901203
-0.028212422289225058 0.04759957718407532 -0.13942144555437552
-0.1284911240058139 0.05283271051443082 0.05655736690671612
-0.01061946243638677 0.09310346372602002 0.11712801569129327
0.09047065473089196 0.11366939969017961 0.03734070442075158
0.05673497146098609 0.07248094044284221 -0.11843840713992339
-0.13906542187151322 0.03917951331872495 -0.040320890067133956
-0.06220934726904667 0.0767304056779301 0.11288242536754528
0.053944371594406355 0.10990476557773728 0.08666572146233605
0.09880739644659058 0.09783708822811162 -0.05625835559711091
-0.06463048902654678 0.04167173450927527 -0.12878806789131472
-0.11311884170846798 0.05901771113465685 0.07887355338109706
0.007083796019789703 0.09828966928105771 0.11308828739781279
0.09855258326767057 0.11210946793675446 0.014793766599709553
0.031095805235946967 0.0628732062909406 -0.13258963318233022
-0.14372524193450106 0.042910992873771495 -0.001304423802402708
-0.043743113200340605 0.08275906327566729 0.11720698568462669
0.06861022502505039 0.1124069237195787 0.07181448685267315
0.08906716167168176 0.08966034491144133 -0.08079643099860219
-0.09901449901665063 0.03826167134113786 -0.1059819488906693
-0.09570894973755961 0.06533655213224757 0.09524144001223092
0.02432646586265696 0.10300432816970044 0.10629360957715965
0.10288691454382107 0.10872326740202384 -0.009671294695152257
0.0002951183746075365 0.05395318311131005 -0.1399605906578792
-0.13818375983735548 0.04802676760541599 0.03314631368021822
-0.025464723063721054 0.08855343610200717 0.11836315657254046
0.08155308751882273 0.11369760248761489 0.054055056236355446
0.073676999066995 0.08044902716305288 -0.10295462028000683
-0.12581585477227025 0.03767171394593105 -0.0724652513712534
-0.07744551269495002 0.07163187336366336 0.10663520657751092
0.04093322105472472 0.10710841873869449 0.09670707341958765
0.10273397127911559 0.10347257279882031 -0.03520167359110478
-0.034575258756452426 0.04639497522146308 -0.13839095980635507
-0.12600442023045405 0.05390440399679344 0.0609688552634672
-0.007467387582113045 0.09404791996305005 0.11661572309651144
0.09213453823788785 0.1135207283979065 0.0335301519188315
0.052608402834266765 0.07076455673770167 -0.12134551273509914
-0.1407676785278495 0.0397045964108367 -0.03328671966013771
-0.058942697851346676 0.07780869116336918 0.11389278269253188
0.05663359580981921 0.11042319573573617 0.08425766237653001
0.09749218377913624 0.0964909853308044 -0.060702255739516126
-0.0709962166410206 0.040873046692450093 -0.12565401416882016
-0.1101510618421322 0.06012869995484199 0.08216619144630807
0.010164065897568299 0.09915940982857467 0.11208971053080054
0.09961195986509173 0.11164766955336045 0.010595061827992504
0.026016652568469287 0.061230185309263746 -0.13443957079716068
-0.143388700078235 0.04373349682847771 0.0052021096708444224
-0.04050070988630037 0.08380034541688502 0.1176316054753844
0.07103598226570865 0.11273004366985837 0.06888995919390391
0.08676486191756225 0.08809514747126405 -0.08491821788310558
-0.10445290851475798 0.03795117574311955 -0.10074372517691835
-0.0925248390199557 0.06645248148154877 0.09758699641486922
0.027309585437041123 0.10377750357029655 0.1048065660918916
0.10320543354168392 0.1079307504759728 -0.014127688741133713
-0.0056111076470315375 0.052500922167339294 -0.14040003077831714
-0.13641885571014653 0.04902312070780598 0.03855683393125141
-0.022266055960680355 0.08954692339446138 0.11826060739968453
0.08361208069627407 0.11378017142344354 0.05062699430631398
0.07036982295071394 0.07875718170095769 -0.10651476117612763
-0.12938465669749444 0.0378536437039188 -0.06577774904637795
-0.07418620166565218 0.07273263132637477 0.10819598801602966
0.04377919676215815 0.10775646859595227 0.09472024813412282
0.10219291129791552 0.10235959889050116 -0.039738160443484126
-0.04099192530065958 0.04525401237574389 -0.13700998658507035
-0.1234061769365514 0.05498646685090458 0.06517211027087386
-0.00432661578849114 0.09498051818991556 0.1160171606280463
0.09370186089424333 0.11331903265277318 0.029643854398434637
0.04830910850442943 0.06905277677998245 -0.12408845254285822
-0.022531107406235436 0.00933269026294761 0.1480042232218546
-0.02670221303984775 0.07064163338562807 0.12960228181395997
0.009136054544370706 0.061285105526966796 0.13660405685012003
0.04579642769741305 -0.02605237848079556 0.14044201930209133
0.0013573551450567212 -0.031162578849869494 0.14672099804198394
-0.0321367576488682 0.054506172571642565 0.1360011248461138
-0.009695955742867716 0.07392192877133279 0.13015965922265757
0.03754642372811869 0.016114205291514232 0.14432809308326464
0.028009256457827376 -0.050068524472104824 0.13859518177002364
-0.027630391024913423 0.02367867260092306 0.1455193525125393
-0.02321388865779542 0.07345996572138622 0.12870411341365992
0.016840561105260922 0.0527124764030016 0.1394194761614136
0.04408642546834616 -0.03733379673377825 0.13842895185207782
-0.008304268119128318 -0.017988503233355425 0.14868575211643242
-0.03107223349311963 0.06172753912636584 0.13313236728591596
-0.003618055301255155 0.07117798628236412 0.1319871355270075
0.042556767627837534 0.00046022396038434925 0.14383570392283176
0.019278744221120064 -0.04697536818410903 0.14114405692491636
-0.030746981757211342 0.03640212943590099 0.14223047523422547
-0.019037292797836797 0.07490671929122215 0.12855568788643884
0.02468578248777472 0.0417025236017278 0.14195602019010536
0.04011468266249713 -0.04530230057048119 0.13725346552240103
-0.016820927721996535 -0.003133173454213467 0.14902093683330936
-0.029019827006990812 0.06724996423548457 0.13090184089924162
0.0031268631864892166 0.06660779683498734 0.1343637753540813
0.045354535800447356 -0.014765462875343367 0.14221444085746987
0.00960028228705853 -0.03983053313035257 0.14429609561786721
-0.03211279260042095 0.047153413664624715 0.13872751757014587
-0.014191368111433454 0.07496964005015516 0.1291439434966888
0.032155532564019 0.028397931033415823 0.14373440520121017
0.03417070884121984 -0.049545778213007104 0.13739570050971786
-0.023579737368562222 0.01195252384345461 0.1476520679144091
-0.026138539287439175 0.0712404272768381 0.12938925104247467
0.010469004171431448 0.0599456258658536 0.13710186684071685
0.045670130879838546 -0.028257320027874025 0.14005628515086613
-0.0003957845032436507 -0.02902162360875973 0.14716517494889364
-0.032029850261151495 0.05591226043392953 0.13545444926401143
-0.008672799252176573 0.07355975478255235 0.13043674723582388
0.038569259048728204 0.01338085381107024 0.1443376770206548
0.02655897338288724 -0.0498215413132763 0.1389691870668336
-0.02831973226295744 0.026057435556960686 0.14497931858285598
-0.022525909449891454 0.07381431248610887 0.12862360077240245
0.01822685093654878 0.0509472631739508 0.13990052994903565
0.043542068095556684 -0.038995594320787856 0.13814279543114233
-0.009911751739007919 -0.015447593649315952 0.1488728619591559
-0.030776419614988462 0.06282029469191541 0.13268919537966553
-0.0024752762278621742 0.07051143344543527 0.13237073226761922
0.04322334677677119 -0.002296978992990124 0.1436191706594936
0.017624411483987683 -0.046003708636443374 0.14167935245312321
-0.031106831180497334 0.03844655472375193 0.14161294956246614
-0.018230664547788666 0.07501990421785117 0.12860659719194203
0.026049020595237404 0.03951119849049523 0.14233872881220197
0.039200482735655844 -0.04633031229552126 0.1371744302553906
-0.018153734967558698 -0.000448041338875383 0.14889674665917416
-0.028568082235719286 0.06806140065929595 0.1305814321320913
0.004382518417760115 0.06559189084743057 0.13482765809497968
0.04559305297089004 -0.01730624182785515 0.1418512161195293
0.007838212250756621 -0.038170766671749436 0.14485011218636645
-0.032194846392170164 0.048841103487999915 0.1381232727524911
-0.013266649833699799 0.07483159877598074 0.1293221861353288
0.033384960262123786 0.025847963768035245 0.143935149276828
0.0329397394039932 -0.04988796138065665 0.1375723986753125
-0.02456463565192239 0.01454051873730186 0.1472587925732738
-0.02555221310435353 0.07179527754119866 0.12919954538717218
0.011815334865616067 0.05853305374043094 0.13760188763906248
0.04546725113917834 -0.03037551446671831 0.13967840632942902
-0.002133990387901123 -0.026793339307258447 0.14757222995465802
-0.03188666004268597 0.05726062294673614 0.13492391178391577
-0.007628440714505902 0.07314673268903252 0.13073393740412045
0.039536821420005086 0.010626169096949014 0.1443049697076496
0.025067173594144097 -0.049446602836687815 0.1393795906003167
-0.028947788849599584 0.02838157333609165 0.14441783759524668
-0.021816760460406186 0.07412623472574015 0.1285664430883803
0.019615672704217112 0.04910534739394167 0.1403705462042566
0.04292864579671824 -0.040550695428060064 0.13788681035675826
-0.01147892181115717 -0.012862026650742594 0.14900604895268155
-0.030451043863529544 0.06386121132440731 0.13226669881644731
-0.0013117730911497213 0.06978670994058905 0.13277083402248183
0.04381793665504779 -0.005033184515358135 0.14336894880317905
0.01594302682539963 -0.044906009061030545 0.14222963912579975
0.12394827384968353 -0.05134105606127338 0.06708890647638428
-0.11397247215044015 -0.09665998016517538 -0.01292763808222686
-0.06057256627512839 -0.105479277027394 0.08777862115927455
0.02088085108655365 -0.0884930954919603 0.11930197864307182
0.0958901914570613 -0.05770025674415237 0.09987868418229699
-0.036317687834461015 -0.12694753428627928 -0.07117126589426802
-0.09305267349316312 -0.10429580676799649 0.05443881562256393
-0.013034207157858317 -0.09822996778431911 0.11260987022840256
0.06478714859173137 -0.07142153720231803 0.11489816970261461
0.13043682277001975 -0.05830934017731474 0.045675552692317246
-0.11333539726921649 -0.098013156520761 0.006964831273310131
-0.048145048285390526 -0.1044278414340941 0.09631656274500824
0.032561971222893844 -0.08439728870164974 0.11965289670496831
0.10644134724912838 -0.05360897332645143 0.09108412361478971
-0.09168997296050387 -0.10616331017543072 -0.05312532758578866
-0.08228728841286732 -0.10545688372862103 0.06787965704027751
-0.0008577558687860507 -0.095122419072613 0.11597840162997484
0.07595505621745353 -0.0664933356729639 0.11094803173597095
0.12504667960674823 -0.08230277058987938 0.00946477007417205
-0.10852015114202085 -0.10041320076110775 0.02530940356907727
-0.03563913417149426 -0.10272775745708843 0.10332889220031269
0.044094216815521996 -0.08001628147953725 0.11896677999178258
0.11647109429736266 -0.051033180617583135 0.07956191720432579
-0.10948926745182548 -0.09789153192297322 -0.03048521429539476
-0.07060376609327074 -0.10579715658298461 0.07951144491456653
0.011136887243663867 -0.09162971866168323 0.11823689948786165
0.08697103430946827 -0.061572723154446556 0.10556911932230549
0.0602166998020747 -0.12757721677069522 -0.050970607471265784
-0.10086798791019426 -0.10276718156707056 0.042006611476167084
-0.02318893700682106 -0.10046400641625924 0.1089461179450076
0.055493364087754994 -0.07538609087677786 0.11720675682119208
0.12538392483773164 -0.051889612473659696 0.06392448286548343
-0.11425373298656719 -0.09674443731739708 -0.009305823272254606
-0.05839326552538498 -0.10534474620397859 0.08940196300138618
0.02295383574960191 -0.08779242063275712 0.11943873870659107
0.0977780667164974 -0.056914505823037455 0.09848953597262815
-0.051094298367080064 -0.12271759530611157 -0.06949650693855931
-0.09124066635313698 -0.10455907985070194 0.056943301837969286
-0.010872538710872322 -0.09771167232882559 0.11328820323707495
0.06676762947936034 -0.07055840277647601 0.11429608677176761
0.13090084811451463 -0.060869777387625196 0.04074111146841379
-0.11274103375744693 -0.09840239224792535 0.010316419300689949
-0.04593914136645808 -0.10417245655878833 0.09766112115381399
0.03460738680722341 -0.0836439755274821 0.11960775115490296
0.10825872109480997 -0.05300848737490844 0.08927569419018999
-0.09643428512184718 -0.10388241318513389 -0.049080269802349315
-0.0802795324408574 -0.10557666723028712 0.07006257208825938
0.0012722287842554377 -0.09453276776561163 0.11645573087011839
0.07791118820149591 -0.06561914006763664 0.11010892429687506
0.12036647008098038 -0.08950868252092782 0.00032959613499041444
-0.10734746307877699 -0.1008520601896276 0.028379290443179578
-0.033435135467876166 -0.10236693217096197 0.10441792429535478
0.04611513637770535 -0.07921610609200486 0.11873585276775449
0.11815383589735627 -0.05085305132069351 0.07715982266772982
-0.11097805116873172 -0.09733816975027718 -0.026629924304372176
-0.06847788858040424 -0.10577320429066635 0.08138063669973776
0.01323482576016001 -0.09097656844994285 0.118524695233403
0.08889567152411207 -0.06072167006049677 0.1044530438490968
0.03852994871210119 -0.13196804558375672 -0.05999898330010566
-0.09929207331347893 -0.10313323431175052 0.04477298468393955
-0.02100421254482613 -0.10001186084942097 0.10980187040669126
0.05749195800626985 -0.07454662972629024 0.11677959907902018
0.12672994305288038 -0.052673986923717386 0.06053901746290352
-0.11434788290546996 -0.09691080969700244 -0.005732071083675326
-0.05620660348481097 -0.10518776675524684 0.09097445492963957
0.025021723904205973 -0.08708206117674493 0.11954341451569524
0.09965607922426721 -0.056151021475793074 0.09703467762027965
-0.063276041518751 -0.11846989596619523 -0.06679091494714066
-0.08938748256732605 -0.10479784077434268 0.0593909970392104
-0.008716282879607065 -0.09718012535577024 0.11393002083998514
0.06874409506889079 -0.06969163338380424 0.11365441315433696
0.13097702936053282 -0.06402104445196516 0.03530330929487526
-0.11202821899395456 -0.09881387103176979 0.0136197298343001
-0.04373185858243768 -0.10389736189951686 0.09895889416948075
0.03664826874951091 -0.082881946584579 0.11953027787140218
0.1100587682029725 -0.052459806208004646 0.08737869462439322
-0.10033015954427335 -0.10200949340411866 -0.04503245875205715
-0.07824590793778936 -0.1056706758798481 0.07218923846451825
0.0033964982543093743 -0.09393139314513718 0.11689891864949883
0.07986245380729047 -0.06474593572262952 0.10922432091470981
0.02710346624509415 -0.011226623306039386 -0.14710324621382542
-0.10248189775861168 -0.07377116718390439 -0.08096465601802977
-0.06863234669352251 -0.09037402816767827 0.09809248707259807
0.11803371387922315 -0.02070227735096959 0.09021894535163451