# vtk DataFile Version 2.0
test
ASCII
DATASET UNSTRUCTURED_GRID
POINTS 6400 float
0.0 0.0 0.0
0.0 4.165 0.0
0.0 8.33 0.0
0.0 12.495000000000001 0.0
0.0 16.66 0.0
0.0 20.825 0.0
0.0 24.990000000000002 0.0
0.0 29.155 0.0
0.0 33.32 0.0
0.0 37.485 0.0
0.0 41.65 0.0
0.0 45.815 0.0
0.0 49.980000000000004 0.0
0.0 54.145 0.0
0.0 58.31 0.0
0.0 62.475 0.0
0.0 66.64 0.0
0.0 70.805 0.0
0.0 74.97 0.0
0.0 79.135 0.0
0.0 83.3 0.0
0.0 87.465 0.0
0.0 91.63 0.0
0.0 95.795 0.0
0.0 99.96000000000001 0.0
0.0 104.125 0.0
0.0 108.29 0.0
0.0 112.455 0.0
0.0 116.62 0.0
0.0 120.785 0.0
0.0 124.95 0.0
0.0 129.115 0.0
0.0 133.28 0.0
0.0 137.445 0.0
0.0 141.61 0.0
0.0 145.775 0.0
0.0 149.94 0.0
0.0 154.105 0.0
0.0 158.27 0.0
0.0 162.435 0.0
0.0 166.6 0.0
0.0 170.76500000000001 0.0
0.0 174.93 0.0
0.0 179.095 0.0
0.0 183.26 0.0
0.0 187.425 0.0
0.0 191.59 0.0
0.0 195.755 0.0
0.0 199.92000000000002 0.0
0.0 204.085 0.0
0.0 208.25 0.0
0.0 212.415 0.0
0.0 216.58 0.0
0.0 220.745 0.0
0.0 224.91 0.0
0.0 229.075 0.0
0.0 233.24 0.0
0.0 237.405 0.0
0.0 241.57 0.0
0.0 245.735 0.0
0.0 249.9 0.0
0.0 254.065 0.0
0.0 258.23 0.0
0.0 262.395 0.0
0.0 266.56 0.0
0.0 270.725 0.0
0.0 274.89 0.0
0.0 279.055 0.0
0.0 283.22 0.0
0.0 287.385 0.0
0.0 291.55 0.0
0.0 295.715 0.0
0.0 299.88 0.0
0.0 304.045 0.0
0.0 308.21 0.0
0.0 312.375 0.0
0.0 316.54 0.0
0.0 320.705 0.0
0.0 324.87 0.0
0.0 329.035 0.0
4.165 0.0 0.0
4.165 4.165 0.0
4.165 8.33 0.0
4.165 12.495000000000001 0.0
4.165 16.66 0.0
4.165 20.825 0.0
4.165 24.990000000000002 0.0
4.165 29.155 0.0
4.165 33.32 0.0
4.165 37.485 0.0
4.165 41.65 0.0
4.165 45.815 0.0
4.165 49.980000000000004 0.0
4.165 54.145 0.0
4.165 58.31 0.0
4.165 62.475 0.0
4.165 66.64 0.0
4.165 70.805 0.0
4.165 74.97 0.0
4.165 79.135 0.0
4.165 83.3 0.0
4.165 87.465 0.0
4.165 91.63 0.0
4.165 95.795 0.0
4.165 99.96000000000001 0.0
4.165 104.125 0.0
4.165 108.29 0.0
4.165 112.455 0.0
4.165 116.62 0.0
4.165 120.785 0.0
4.165 124.95 0.0
4.165 129.115 0.0
4.165 133.28 0.0
4.165 137.445 0.0
4.165 141.61 0.0
4.165 145.775 0.0
4.165 149.94 0.0
4.165 154.105 0.0
4.165 158.27 0.0
4.165 162.435 0.0
4.165 166.6 0.0
4.165 170.76500000000001 0.0
4.165 174.93 0.0
4.165 179.095 0.0
4.165 183.26 0.0
4.165 187.425 0.0
4.165 191.59 0.0
4.165 195.755 0.0
4.165 199.92000000000002 0.0
4.165 204.085 0.0
4.165 208.25 0.0
4.165 212.415 0.0
4.165 216.58 0.0
4.165 220.745 0.0
4.165 224.91 0.0
4.165 229.075 0.0
4.165 233.24 0.0
4.165 237.405 0.0
4.165 241.57 0.0
4.165 245.735 0.0
4.165 249.9 0.0
4.165 254.065 0.0
4.165 258.23 0.0
4.165 262.395 0.0
4.165 266.56 0.0
4.165 270.725 0.0
4.165 274.89 0.0
4.165 279.055 0.0
4.165 283.22 0.0
4.165 287.385 0.0
4.165 291.55 0.0
4.165 295.715 0.0
4.165 299.88 0.0
4.165 304.045 0.0
4.165 308.21 0.0
4.165 312.375 0.0
4.165 316.54 0.0
4.165 320.705 0.0
4.165 324.87 0.0
4.165 329.035 0.0
8.33 0.0 0.0
8.33 4.165 0.0
8.33 8.33 0.0
8.33 12.495000000000001 0.0
8.33 16.66 0.0
8.33 20.825 0.0
8.33 24.990000000000002 0.0
8.33 29.155 0.0
8.33 33.32 0.0
8.33 37.485 0.0
8.33 41.65 0.0
8.33 45.815 0.0
8.33 49.980000000000004 0.0
8.33 54.145 0.0
8.33 58.31 0.0
8.33 62.475 0.0
8.33 66.64 0.0
8.33 70.805 0.0
8.33 74.97 0.0
8.33 79.135 0.0
8.33 83.3 0.0
8.33 87.465 0.0
8.33 91.63 0.0
8.33 95.795 0.0
8.33 99.96000000000001 0.0
8.33 104.125 0.0
8.33 108.29 0.0
8.33 112.455 0.0
8.33 116.62 0.0
8.33 120.785 0.0
8.33 124.95 0.0
8.33 129.115 0.0
8.33 133.28 0.0
8.33 137.445 0.0
8.33 141.61 0.0
8.33 145.775 0.0
8.33 149.94 0.0
8.33 154.105 0.0
8.33 158.27 0.0
8.33 162.435 0.0
8.33 166.6 0.0
8.33 170.76500000000001 0.0
8.33 174.93 0.0
8.33 179.095 0.0
8.33 183.26 0.0
8.33 187.425 0.0
8.33 191.59 0.0
8.33 195.755 0.0
8.33 199.92000000000002 0.0
8.33 204.085 0.0
8.33 208.25 0.0
8.33 212.415 0.0
8.33 216.58 0.0
8.33 220.745 0.0
8.33 224.91 0.0
8.33 229.075 0.0
8.33 233.24 0.0
8.33 237.405 0.0
8.33 241.57 0.0
8.33 245.735 0.0
8.33 249.9 0.0
8.33 254.065 0.0
8.33 258.23 0.0
8.33 262.395 0.0
8.33 266.56 0.0
8.33 270.725 0.0
8.33 274.89 0.0
8.33 279.055 0.0
8.33 283.22 0.0
8.33 287.385 0.0
8.33 291.55 0.0
8.33 295.715 0.0
8.33 299.88 0.0
8.33 304.045 0.0
8.33 308.21 0.0
8.33 312.375 0.0
8.33 316.54 0.0
8.33 320.705 0.0
8.33 324.87 0.0
8.33 329.035 0.0
12.495000000000001 0.0 0.0
12.495000000000001 4.165 0.0
12.495000000000001 8.33 0.0
12.495000000000001 12.495000000000001 0.0
12.495000000000001 16.66 0.0
12.495000000000001 20.825 0.0
12.495000000000001 24.990000000000002 0.0
12.495000000000001 29.155 0.0
12.495000000000001 33.32 0.0
12.495000000000001 37.485 0.0
12.495000000000001 41.65 0.0
12.495000000000001 45.815 0.0
12.495000000000001 49.980000000000004 0.0
12.495000000000001 54.145 0.0
12.495000000000001 58.31 0.0
12.495000000000001 62.475 0.0
12.495000000000001 66.64 0.0
12.495000000000001 70.805 0.0
12.495000000000001 74.97 0.0
12.495000000000001 79.135 0.0
12.495000000000001 83.3 0.0
12.495000000000001 87.465 0.0
12.495000000000001 91.63 0.0
12.495000000000001 95.795 0.0
12.495000000000001 99.96000000000001 0.0
12.495000000000001 104.125 0.0
12.495000000000001 108.29 0.0
12.495000000000001 112.455 0.0
12.495000000000001 116.62 0.0
12.495000000000001 120.785 0.0
12.495000000000001 124.95 0.0
12.495000000000001 129.115 0.0
12.495000000000001 133.28 0.0
12.495000000000001 137.445 0.0
12.495000000000001 141.61 0.0
12.495000000000001 145.775 0.0
12.495000000000001 149.94 0.0
12.495000000000001 154.105 0.0
12.495000000000001 158.27 0.0
12.495000000000001 162.435 0.0
12.495000000000001 166.6 0.0
12.495000000000001 170.76500000000001 0.0
12.495000000000001 174.93 0.0
12.495000000000001 179.095 0.0
12.495000000000001 183.26 0.0
12.495000000000001 187.425 0.0
12.495000000000001 191.59 0.0
12.495000000000001 195.755 0.0
12.495000000000001 199.92000000000002 0.0
12.495000000000001 204.085 0.0
12.495000000000001 208.25 0.0
12.495000000000001 212.415 0.0
12.495000000000001 216.58 0.0
12.495000000000001 220.745 0.0
12.495000000000001 224.91 0.0
12.495000000000001 229.075 0.0
12.495000000000001 233.24 0.0
12.495000000000001 237.405 0.0
12.495000000000001 241.57 0.0
12.495000000000001 245.735 0.0
12.495000000000001 249.9 0.0
12.495000000000001 254.065 0.0
12.495000000000001 258.23 0.0
12.495000000000001 262.395 0.0
12.495000000000001 266.56 0.0
12.495000000000001 270.725 0.0
12.495000000000001 274.89 0.0
12.495000000000001 279.055 0.0
12.495000000000001 283.22 0.0
12.495000000000001 287.385 0.0
12.495000000000001 291.55 0.0
12.495000000000001 295.715 0.0
12.495000000000001 299.88 0.0
12.495000000000001 304.045 0.0
12.495000000000001 308.21 0.0
12.495000000000001 312.375 0.0
12.495000000000001 316.54 0.0
12.495000000000001 320.705 0.0
12.495000000000001 324.87 0.0
12.495000000000001 329.035 0.0
16.66 0.0 0.0
16.66 4.165 0.0
16.66 8.33 0.0
16.66 12.495000000000001 0.0
16.66 16.66 0.0
16.66 20.825 0.0
16.66 24.990000000000002 0.0
16.66 29.155 0.0
16.66 33.32 0.0
16.66 37.485 0.0
16.66 41.65 0.0
16.66 45.815 0.0
16.66 49.980000000000004 0.0
16.66 54.145 0.0
16.66 58.31 0.0
16.66 62.475 0.0
16.66 66.64 0.0
16.66 70.805 0.0
16.66 74.97 0.0
16.66 79.135 0.0
16.66 83.3 0.0
16.66 87.465 0.0
16.66 91.63 0.0
16.66 95.795 0.0
16.66 99.96000000000001 0.0
16.66 104.125 0.0
16.66 108.29 0.0
16.66 112.455 0.0
16.66 116.62 0.0
16.66 120.785 0.0
16.66 124.95 0.0
16.66 129.115 0.0
16.66 133.28 0.0
16.66 137.445 0.0
16.66 141.61 0.0
16.66 145.775 0.0
16.66 149.94 0.0
16.66 154.105 0.0
16.66 158.27 0.0
16.66 162.435 0.0
16.66 166.6 0.0
16.66 170.76500000000001 0.0
16.66 174.93 0.0
16.66 179.095 0.0
16.66 183.26 0.0
16.66 187.425 0.0
16.66 191.59 0.0
16.66 195.755 0.0
16.66 199.92000000000002 0.0
16.66 204.085 0.0
16.66 208.25 0.0
16.66 212.415 0.0
16.66 216.58 0.0
16.66 220.745 0.0
16.66 224.91 0.0
16.66 229.075 0.0
16.66 233.24 0.0
16.66 237.405 0.0
16.66 241.57 0.0
16.66 245.735 0.0
16.66 249.9 0.0
16.66 254.065 0.0
16.66 258.23 0.0
16.66 262.395 0.0
16.66 266.56 0.0
16.66 270.725 0.0
16.66 274.89 0.0
16.66 279.055 0.0
16.66 283.22 0.0
16.66 287.385 0.0
16.66 291.55 0.0
16.66 295.715 0.0
16.66 299.88 0.0
16.66 304.045 0.0
16.66 308.21 0.0
16.66 312.375 0.0
16.66 316.54 0.0
16.66 320.705 0.0
16.66 324.87 0.0
16.66 329.035 0.0
20.825 0.0 0.0
20.825 4.165 0.0
20.825 8.33 0.0
20.825 12.495000000000001 0.0
20.825 16.66 0.0
20.825 20.825 0.0
20.825 24.990000000000002 0.0
20.825 29.155 0.0
20.825 33.32 0.0
20.825 37.485 0.0
20.825 41.65 0.0
20.825 45.815 0.0
20.825 49.980000000000004 0.0
20.825 54.145 0.0
20.825 58.31 0.0
20.825 62.475 0.0
20.825 66.64 0.0
20.825 70.805 0.0
20.825 74.97 0.0
20.825 79.135 0.0
20.825 83.3 0.0
20.825 87.465 0.0
20.825 91.63 0.0
20.825 95.795 0.0
20.825 99.96000000000001 0.0
20.825 104.125 0.0
20.825 108.29 0.0
20.825 112.455 0.0
20.825 116.62 0.0
20.825 120.785 0.0
20.825 124.95 0.0
20.825 129.115 0.0
20.825 133.28 0.0
20.825 137.445 0.0
20.825 141.61 0.0
20.825 145.775 0.0
20.825 149.94 0.0
20.825 154.105 0.0
20.825 158.27 0.0
20.825 162.435 0.0
20.825 166.6 0.0
20.825 170.76500000000001 0.0
20.825 174.93 0.0
20.825 179.095 0.0
20.825 183.26 0.0
20.825 187.425 0.0
20.825 191.59 0.0
20.825 195.755 0.0
20.825 199.92000000000002 0.0
20.825 204.085 0.0
20.825 208.25 0.0
20.825 212.415 0.0
20.825 216.58 0.0
20.825 220.745 0.0
20.825 224.91 0.0
20.825 229.075 0.0
20.825 233.24 0.0
20.825 237.405 0.0
20.825 241.57 0.0
20.825 245.735 0.0
20.825 249.9 0.0
20.825 254.065 0.0
20.825 258.23 0.0
20.825 262.395 0.0
20.825 266.56 0.0
20.825 270.725 0.0
20.825 274.89 0.0
20.825 279.055 0.0
20.825 283.22 0.0
20.825 287.385 0.0
20.825 291.55 0.0
20.825 295.715 0.0
20.825 299.88 0.0
20.825 304.045 0.0
20.825 308.21 0.0
20.825 312.375 0.0
20.825 316.54 0.0
20.825 320.705 0.0
20.825 324.87 0.0
20.825 329.035 0.0
24.990000000000002 0.0 0.0
24.990000000000002 4.165 0.0
24.990000000000002 8.33 0.0
24.990000000000002 12.495000000000001 0.0
24.990000000000002 16.66 0.0
24.990000000000002 20.825 0.0
24.990000000000002 24.990000000000002 0.0
24.990000000000002 29.155 0.0
24.990000000000002 33.32 0.0
24.990000000000002 37.485 0.0
24.990000000000002 41.65 0.0
24.990000000000002 45.815 0.0
[...]
POINT_DATA 6400
VECTORS vector float
0.0 0.0 -0.2
-0.12428026549129603 0.0 0.156698486302239
0.1436559187827124 0.0 0.13915091447308114
-0.07019541616706652 0.0 -0.18727680996090343
-0.10333309826746445 0.0 0.17123746903772707
0.1610862820495692 0.0 0.11853779876244808
-0.1268717069879378 0.0 -0.15460779400135966
-0.08114289495910848 0.0 0.1827999742824246
0.17612281390683382 0.0 0.09476684241621007
-0.1652666983128213 0.0 -0.11263622165528685
-0.05801072872924465 0.0 0.19140207771155981
0.18819312553203651 0.0 0.06770042468465866
-0.1876166336786662 0.0 -0.06928202340495825
-0.034221301890266724 0.0 0.19705050747697972
0.19651876111815403 0.0 0.037153418800776945
-0.1979889245841841 0.0 -0.02829108944523468
-0.010049921147622425 0.0 0.19974733811724893
0.19997868659678703 0.0 0.002919744342239566
-0.19979319444004298 0.0 0.009092824393068447
0.014232857785878447 0.0 0.19949292157679924
0.19689292486616 0.0 -0.03511660771840988
-0.19539350628360821 0.0 0.0426776018796459
0.03835777112459186 0.0 0.1962872420570258
0.18472876329169624 0.0 -0.07665040125609562
-0.1863540619979603 0.0 0.07260966586385298
0.06205371191852496 0.0 0.19012978945218637
0.1599005249690828 0.0 -0.12013251897222388
-0.17372391222440564 0.0 0.09909592484783121
0.08504413300012184 0.0 0.18101794232135549
0.11839244918993536 0.0 -0.16119313873365881
-0.1582380862258318 0.0 0.12231397331288943
0.10704209392585105 0.0 0.16894374841339732
0.05877113918517515 0.0 -0.19116995893412955
-0.14044290144630014 0.0 0.14239308773021545
0.12774273149679358 0.0 0.15388890327030766
-0.012551922505476402 0.0 -0.19960573449031097
-0.12077118920978121 0.0 0.15941869356149935
0.14681128316221068 0.0 0.13581769817025025
-0.08119185636405726 0.0 -0.18277823300425655
-0.0995872152563142 0.0 0.17344274720348654
0.163863605154989 0.0 0.11466786343875895
-0.13479007149374653 0.0 -0.1477553268979183
-0.07721369375134243 0.0 0.18449402564114076
0.17843401862775043 0.0 0.09033991917392674
-0.17015275204946625 0.0 -0.10510966163960789
-0.05394822934164002 0.0 0.19258657417094738
0.18992167025741602 0.0 0.06268779120876201
-0.19015067593187296 0.0 -0.06198968013025903
-0.030073489552992896 0.0 0.1977260357821044
0.1975006880069338 0.0 0.031519489792631424
-0.1988328859287298 0.0 -0.021575066008073414
-0.005863676035090146 0.0 0.19991402477904222
0.19997165224033508 0.0 -0.0033672392654070364
-0.19942519459736696 0.0 0.015152285629644425
0.018411105918444078 0.0 0.19915077498935282
0.19552978780575225 0.0 -0.04204880593593002
-0.19413153469603828 0.0 0.04809311007369865
0.042481501160026 0.0 0.19543623527685625
0.1814662391930128 0.0 -0.08408331602133842
-0.18440898965690566 0.0 0.07741656498269131
0.06607574665749806 0.0 0.18876968957874074
0.15403352406564577 0.0 -0.1275683090109692
-0.17124055932678023 0.0 0.10332797705099746
0.08891591037956695 0.0 0.1791478743423232
0.10935447289960001 0.0 -0.16745626072754236
-0.15532150473482842 0.0 0.12599694506974632
0.11071259426037386 0.0 0.16656146454728907
0.04697487913561554 0.0 -0.19440514584288737
-0.1371742608440632 0.0 0.14554457104916316
0.13115679611285597 0.0 0.15098971764133717
-0.02501766856588746 0.0 -0.19842912150066938
-0.11721725531264104 0.0 0.16204973019715627
0.14990690149655012 0.0 0.1323930545145916
-0.0917146262458619 0.0 -0.17773133469532565
-0.09580602958254633 0.0 0.17555968983689924
0.16656746358563387 0.0 0.11070356848199854
-0.14215180627214427 0.0 -0.14068711374382084
-0.07325801296026936 0.0 0.18610014383958173
0.18065410610580504 0.0 0.08581429919956539
-0.17458043997049957 0.0 -0.09757904477758943
0.0 0.12428026549129603 0.156698486302239
-0.05836677394093105 0.05836677394093105 0.18217200498280875
0.0671556382165902 0.06086843189824575 0.1782839147370594
-0.026505167556823885 0.12200157542416828 0.15624689336689443
-0.04869844117205426 0.056390129970273685 0.18560338108274754
0.0748491623387109 0.06397069352175787 0.1740843280354054
-0.04953135725650032 0.11591374851025704 0.15527603664001027
-0.0383389266046303 0.054879344977437655 0.18846321710522762
0.08118945696219054 0.06776652505903451 0.16975267349767387
-0.06711389008238607 0.107688304571339 0.15459286793561963
-0.027458623350404374 0.0537899470617611 0.1906637500910794
0.08585540388082083 0.0723644593275549 0.16550599581493053
-0.07898374835232021 0.0989151159729198 0.15484626998504414
-0.016216560998663136 0.05309041594192733 0.19214169481007967
0.08843267577086816 0.07787975894180964 0.16159952042988904
-0.08583064410406371 0.09060182884252672 0.15628310575065707
-0.004764902381966874 0.0527607972648838 0.19285640766452164
0.08837520768656004 0.08440973775002092 0.15831872548542725
-0.08860183658495917 0.08320892715613297 0.15882691521054468
0.006747796905486778 0.05279177316415519 0.1927887339112602
0.08496727529776515 0.09197683823503268 0.15595134932651408
-0.08815908488661657 0.07685864447007867 0.16223663125871535
0.01817398180068009 0.053184216889279295 0.19194047373960152
0.07732103051839695 0.10041500599672758 0.1547200207156472
-0.08518694461555103 0.07150944496801791 0.16622149002891615
0.029364672541617926 0.053949234821273645 0.19033443216802007
0.06449951975223848 0.10918342431475639 0.15465701344146818
-0.08020580707382413 0.06705803456176039 0.1704999956373907
0.04016678108107152 0.05510869580678976 0.18801505616322325
0.0459192560583176 0.11716630066335812 0.15544606753441603
-0.07361137945860384 0.06338915081219682 0.17482328327059302
0.05041968446825976 0.05669624253367833 0.18504970008266278
0.02210029788955349 0.12270467337815359 0.15638139264104808
-0.0657120032136782 0.06039658998859784 0.1789809614215846
0.05995044192053659 0.05875874845397874 0.18153058693689728
-0.004677672527051103 0.12421048993480102 0.15668399270469965
-0.056757027248054676 0.057990366556560716 0.18279977364482514
0.06856681141900074 0.061358085130842156 0.17757752605807842
-0.030802418858039516 0.12118288524406712 0.1560958657889989
-0.04695669347559562 0.056097830508767814 0.18614000738704325
0.07604686752916 0.06457281421789454 0.17334135572039255
-0.05297725337182502 0.1145980782254859 0.15511508982753053
-0.03649561757797839 0.0546624895073517 0.18889172067208404
0.08212355527490392 0.06849883845486324 0.16900778325078508
-0.06955619849791181 0.106178487090827 0.1545576401528639
-0.02554183644329714 0.05364222103302138 0.19097153377859313
0.0864620897925415 0.073246777170299 0.16480053599084885
-0.08049666624108241 0.09743025385975743 0.15500849124127045
-0.01425291809811056 0.053007585792125424 0.19232017620150785
0.08862836127973345 0.07893119821579551 0.1609809911917797
-0.08657314061883858 0.08925497242010633 0.1566481446480515
-0.002780195680644334 0.05274051624602715 0.1929007736067429
0.08804943034668795 0.0856418053172599 0.15783782499015975
-0.08873338103537032 0.08203947838856923 0.15936094589253436
0.008728123001936983 0.052833469801582315 0.19269780574149864
0.08397812388138264 0.09337862732683543 0.15565380389800676
-0.0878107046263552 0.07586742074122681 0.16289080582739063
0.0201244118265167 0.05328906745601484 0.1917166746485685
0.07550375737735178 0.1019261566073637 0.15462936726622523
-0.08445906289421444 0.0706811388869284 0.16694562977412097
0.031259188228553114 0.05412021984535096 0.1899838544592218
0.06171132739440616 0.11065670857317884 0.1547475522228736
-0.07917440654416764 0.06637278003189682 0.17124855450256016
0.04197833852654748 0.05535074044278903 0.18754763295489918
0.04214681146786775 0.11834621369935 0.15562075692567426
-0.07233494404220828 0.06282767211958784 0.17555722567426318
0.05211950621721322 0.0570164379327114 0.18447949175217052
0.017603740000986006 0.12328505460635197 0.1564956984989891
-0.06423708088351551 0.0599421355461129 0.1796678541802515
0.0615069980934054 0.0591666406869672 0.18087619471715216
-0.009335028448629412 0.12400193475915784 0.15664091872767105
-0.05512221122398341 0.05762919032324452 0.18341324448486762
0.06994431218172097 0.06186598923757214 0.17686263757244652
-0.03497771789038933 0.12025660614720456 0.1559323825545434
-0.04519534315420313 0.055819087376416415 0.1866590754333628
0.0772030152931269 0.06519604152368999 0.17259539564916127
-0.05625271977002011 0.1132286325361917 0.15496744268542237
-0.034637686722736205 0.05445794233996665 0.18930019327669598
0.08300622010976216 0.06925556970040309 0.1682665548722096
-0.07182902310635232 0.10466051152925718 0.15455344954423159
0.0 -0.1436559187827124 0.13915091447308114
-0.06086843189824575 -0.0671556382165902 0.1782839147370594
0.07004196934365499 -0.07004196934365499 0.17374764764141415
-0.027763082430021332 -0.14099150116284279 0.13910646230075704
-0.05078130898166924 -0.06487573549856698 0.18224268874670452
0.07807770240203302 -0.07362266037604452 0.1687707802517165
-0.0518531702377568 -0.1338814486541233 0.13923723080615888
-0.03997614632581091 -0.06313355763920038 0.18551566409539416
0.08470765425778719 -0.07800610663663939 0.1635226609297208
-0.07021025143008951 -0.12429310082614276 0.14007764161758982
-0.028629919190502187 -0.06187751247781145 0.18801994887964313
0.08959784542294974 -0.08331930132872331 0.15820910252466072
-0.08257028050921034 -0.11408775952180693 0.142007506505553
-0.016907824672350632 -0.06107106180052921 0.18969567964348844
0.09231670008786429 -0.08969794055860741 0.15307483903121324
-0.08967391826121457 -0.10443621083152442 0.14509192345142577
-0.004967949852312612 -0.06069108650199373 0.19050436082534283
0.09229411827451625 -0.09725826009461182 0.14840022431013522
-0.09252366971625937 -0.09586728212968311 0.14916043295493714
0.00703535051967778 -0.06072679401701192 0.1904278349703128
0.0887804275866205 -0.10603137279464159 0.14448316047491686
-0.09202553264622204 -0.08851652466787562 0.1539354611579168
0.01894875654619197 -0.061179195717080075 0.18946780897230106
0.08084133064909994 -0.1158309999636275 0.14159046121229008
-0.08889606891291468 -0.08233098079014654 0.15911976160729643
0.030617474707984083 -0.06206115618800351 0.18764589826349576
0.06748366845455082 -0.12603445283515077 0.13986161442819262
-0.0836783265561843 -0.07718774628452776 0.16443840636624996
0.04188246030587006 -0.063398014485634 0.18500419259575326
0.04807714772937205 -0.135343354474568 0.13917889303259884
-0.07678435759083238 -0.07295131081184422 0.16965337803945102
0.05257686558604266 -0.06522877357750269 0.1816063883863178
0.023150694612192095 -0.14181343268792646 0.13911504465096497
-0.06853479043616449 -0.06949749781523333 0.1745654040676235
0.06252107289153196 -0.06760782077568256 0.17753956746160826
-0.004900697529875061 -0.143574306182199 0.1391488475267433
-0.059188700554388685 -0.06672143622458308 0.17901102668498334
0.07151542820154062 -0.07060703172690098 0.1729167157907722
-0.032261805147015335 -0.14003464582254352 0.13910238638503228
-0.048964451165224965 -0.06453864102291247 0.1828585418759647
0.07932941382909366 -0.07431782605774821 0.16788003106856603
-0.05545412744329889 -0.13234640224508412 0.1393171545872394
-0.0380537760355886 -0.06288351578636525 0.18600422998356572
0.08568549617022726 -0.07885207890571885 0.16260487507546711
-0.07275621649102876 -0.12253528593232761 0.1403268921603884
-0.02663120713529606 -0.06170720156797541 0.18836931831157167
0.09023540737426726 -0.0843393292989233 0.15730368333070852
-0.08414249046917716 -0.11236257132565222 0.14245944637942462
-0.01486042770931318 -0.06097557606573403 0.1898977272421873
0.09252681427375442 -0.09091466715740358 0.15222782904583734
-0.09044127045169137 -0.10287415216806109 0.1457301801782549
-0.0028986661931135237 -0.060667707599003556 0.19055452497640332
0.0919612688927728 -0.09868578165830835 0.14766259351006886
-0.0926541853860787 -0.094512939346307 0.1499416760829472
0.009100082400028879 -0.060774860090291774 0.19032499804628433
0.08775562104097354 -0.10765807963220497 0.1439051384267388
-0.09165656795024354 -0.08736989544363476 0.15480818751523032
0.02098242468070964 -0.061300069118112976 0.1892142684382785
0.07895058057596605 -0.11758793919324695 0.14120864840017117
-0.08813252807272846 -0.08137366477588885 0.1600343218701882
0.03259304698019457 -0.06225828975729596 0.18724742627081262
0.06457451147377812 -0.12775101421213872 0.13967752444718093
-0.08259938683674031 -0.07639631001200378 0.16535097553611333
0.04377184290191942 -0.06367711643941595 0.18447018894913822
0.04413214159630862 -0.13672093305512803 0.1391392846850183
-0.07545086059259708 -0.07230317752170294 0.17052688396877952
0.054350168470929196 -0.06559806833212918 0.18095013848647623
0.018441435339687184 -0.1424920300131604 0.1391256081580265
-0.06699511145220888 -0.06897312376710339 0.175369219760236
0.06414555061216741 -0.06807839137092211 0.17677862134604802
-0.009779914791440419 -0.1433303804948915 0.1391429311674215
-0.05748292714219099 -0.06630482441899593 0.1797202919704163
0.07295390938591594 -0.07119319680467176 0.1720734024596563
-0.03663177199385146 -0.13895230872605058 0.1391056044172585
-0.04712722869480279 -0.06421719217775822 0.18345347242380727
0.08053795372220575 -0.07503742515801581 0.16698210334013353
-0.05887567128380031 -0.1307491807806984 0.13942132927231096
-0.036116214396008484 -0.06264767205036821 0.18646953704123112
0.08660989379375938 -0.07972636100520197 0.1616862197526491
-0.07512437456369882 -0.12076862722396889 0.14061033754618157
0.0 0.07019541616706652 -0.18727680996090343
-0.12200157542416828 0.026505167556823885 0.15624689336689443
0.14099150116284279 0.027763082430021332 0.13910646230075704
-0.06804632964430705 0.06804632964430705 -0.17532653548130303
-0.10145488691320768 0.02552267099481873 0.17045673699422526
0.15805329073614893 0.029346936499717098 0.11898703545158165
-0.12326758998093118 0.06267130560747235 -0.1444901682252043
-0.07967745814342796 0.024778188679110223 0.1817623284115405
0.17274102655957188 0.031323926133985346 0.09580892126883543
-0.16097540695717238 0.056115233469899245 -0.10458488861968276
-0.05696777020072903 0.024244693215148536 0.19017588703424065
0.1844858871910746 0.033782046108887555 0.06945308335861772
-0.1831359844416565 0.04982688377040665 -0.06307529513459091
-0.033607792539791397 0.02390355365460491 0.1957016515088306
0.19251571505194162 0.03683351239489889 0.03976168787532114
-0.19357705233904954 0.04439290650618554 -0.023604971079371203
-0.009869987630230953 0.02374318986437293 0.1983402235534775
0.19572280979774176 0.040613335673945566 0.006568005048142544
-0.19557685369931893 0.03990338778430019 0.012546471233417001
0.01397800146229311 0.02375824974576685 0.19809129472073705
0.1924576481152076 0.04526130526577778 -0.030190527116978484
-0.19143890739550917 0.03625942972708029 0.04512647217632456
0.037669843971642684 0.0239492334077447 0.19495491036220008
0.1802571503883657 0.0508579208257394 -0.07014863949606534
-0.18270105264908207 0.03331935074635224 0.07423035919863856
0.060937337149830295 0.02432252815416659 0.18893135146205273
0.1556838907393576 0.05725442029911061 -0.11173386917344519
-0.17040071680598032 0.03095148849332783 0.10002800143987434
0.08350676169655685 0.024890857683252873 0.18001962658206608
0.11497912564515521 0.06373705481263414 -0.15072288648273324
-0.15526731051687745 0.029047925565584273 0.12267143231083528
0.10509388726504981 0.025674188503760083 0.16821447887799196
0.056955262940126386 0.06870082503290374 -0.1789868561185972
-0.1378438323112936 0.027524546118672766 0.14227254568150888
0.12539641744840277 0.026701176172053104 0.15350174488303023
-0.012156268598065668 0.07012838908764263 -0.1869070201403465
-0.11856056180468239 0.026317314914118952 0.1589049782740276
0.14408202657731284 0.028011267919279156 0.13585189909209547
-0.07873212737188617 0.06729356986026135 -0.17109303777465412
-0.09777936507199018 0.02537820412301514 0.17261269513453825
0.160768984190817 0.029657583895388157 0.11521181119894282
-0.13101876956442904 0.0615724632347564 -0.13799606441137233
-0.0758204802299973 0.024671771598289118 0.1834190787892428
0.17499432746899346 0.03171060667966368 0.09149547954780257
-0.16580140939080767 0.05498624057640333 -0.09739818268990288
-0.0529788945451099 0.024172559564206678 0.19133458677639287
0.1861610688767922 0.034262320358774676 0.0645766973318001
-0.18566837736461464 0.048822385638302365 -0.05606806851832822
-0.029534520841907153 0.02386323290590546 0.19636256820972134
0.19345043483699687 0.03742922215318677 0.034292602560672396
-0.1944480208430868 0.04355298139302985 -0.017120309634609056
-0.005758701461400483 0.02373333078004609 0.19850331575961996
0.1956783345200025 0.04134920095588998 0.00048267979803713623
-0.1952502820100966 0.03921865049269595 0.018418057131779953
0.018081377958616352 0.02377852520770529 0.1977565308910535
0.19107517335984392 0.046158394537379355 -0.0368738489886427
-0.19022653532296682 0.03570623596798704 0.05038779586386449
0.041719293821802776 0.024000317547675593 0.19412234616504312
0.17701202278471476 0.05191405633305092 -0.0772766105928077
-0.18081103532767828 0.03287360469259134 0.07890941400269252
0.06488617743083278 0.02440614355899514 0.18760097050653074
0.14990774050074515 0.05839854591615861 -0.11881615703615218
-0.1679766229163926 0.030592794728149814 0.10415342079992068
0.08730690699996407 0.025009897249982645 0.17819093419600485
0.10615659957690585 0.06475924208410797 -0.1566429600427685
-0.15241351637665995 0.02876016788828621 0.1262654852631518
0.10869477098977492 0.025832923394250775 0.16588582467585095
0.04551234011584908 0.06924680939983706 -0.18202611429441085
-0.13464103741565794 0.027295369560233974 0.14535045181975068
0.12874330900028105 0.02690556789423212 0.15066934261470388
-0.024231282623846218 0.06992851953501364 -0.18580324835170267
-0.11507511694362645 0.02613740257742664 0.16147617052344357
0.1471133279034955 0.028269406645997433 0.13250852576737035
-0.08896850763360498 0.0664536582068123 -0.16633855824907628
-0.0940688934672637 0.025240630203828298 0.1746824372075172
0.16341181383176642 0.029980269376510646 0.11134524034876377
-0.1382355999165741 0.06045020168247944 -0.1312885830232485
-0.0719372978057121 0.024571495131043265 0.18498991002602658
0.17715722238614984 0.03211205109441586 0.08708693777446697
-0.1701821451424409 0.053871863907373044 -0.09019900084736343
0.0 0.10333309826746445 0.17123746903772707
-0.056390129970273685 0.04869844117205426 0.18560338108274754
0.06487573549856698 0.05078130898166924 0.18224268874670452
-0.02552267099481873 0.10145488691320768 0.17045673699422526
-0.047052321677084605 0.047052321677084605 0.1886058271888552
0.07229994372683142 0.053363467045966284 0.17867584761777705
-0.04771525150708419 0.09643260603275479 0.16859420887844045
-0.03704479012918254 0.045793946505365724 0.1911297935638202
0.07841292596220838 0.05652169845159617 0.1750905784049846
-0.06468744463797324 0.08963715972759961 0.16667547540708547
-0.026532665019295743 0.044886443390602486 0.1930834661143105
0.08290381601098042 0.06034540016454654 0.17171310366363499
-0.07616804624769394 0.08237770797036048 0.16556672962995667
-0.015670047052726715 0.04430366276274834 0.1944007075377299
0.08537197855447298 0.0649290641753023 0.1688071144917005
-0.08280858814158627 0.07548869834701474 0.16566289310485482
-0.004604367156200717 0.04402904375493508 0.195039080978959
0.08529031249467817 0.07035156668770222 0.16666199224522052
-0.08551401510437995 0.06935478992712436 0.16696486557025203
0.006520449416581577 0.04405485141791367 0.19497859832799946
0.08196966283339015 0.0766287775836332 0.16555665139467643
-0.08511175370714655 0.06408068573966795 0.169262089955276
0.01756145003821209 0.044381810699460525 0.19422113775692038
0.07455815784869499 0.0836196062590128 0.16567692219285324
-0.08226127114455595 0.05963452245039794 0.17226957654152064
0.028374297153585273 0.045019140987099804 0.192790498224948
0.06216177304093216 0.0908731510285571 0.1669670158880151
-0.07746506113224923 0.05593232070694231 0.17570071088106798
0.03881066089758345 0.04598499106296723 0.1907330941332196
0.04423186503324114 0.09746643706928947 0.16894921059507612
-0.07110584516864926 0.05287948836275335 0.1792978485463379