# vtk DataFile Version 2.0
test
ASCII
DATASET UNSTRUCTURED_GRID
POINTS 6400 float
0.0 0.0 0.0
0.0 4.234 0.0
0.0 8.468 0.0
0.0 12.702 0.0
0.0 16.936 0.0
0.0 21.17 0.0
0.0 25.404 0.0
0.0 29.637999999999998 0.0
0.0 33.872 0.0
0.0 38.106 0.0
0.0 42.34 0.0
0.0 46.574 0.0
0.0 50.808 0.0
0.0 55.042 0.0
0.0 59.275999999999996 0.0
0.0 63.51 0.0
0.0 67.744 0.0
0.0 71.978 0.0
0.0 76.212 0.0
0.0 80.446 0.0
0.0 84.68 0.0
0.0 88.914 0.0
0.0 93.148 0.0
0.0 97.382 0.0
0.0 101.616 0.0
0.0 105.85 0.0
0.0 110.084 0.0
0.0 114.318 0.0
0.0 118.55199999999999 0.0
0.0 122.786 0.0
0.0 127.02 0.0
0.0 131.254 0.0
0.0 135.488 0.0
0.0 139.722 0.0
0.0 143.956 0.0
0.0 148.19 0.0
0.0 152.424 0.0
0.0 156.658 0.0
0.0 160.892 0.0
0.0 165.126 0.0
0.0 169.36 0.0
0.0 173.594 0.0
0.0 177.828 0.0
0.0 182.062 0.0
0.0 186.296 0.0
0.0 190.53 0.0
0.0 194.764 0.0
0.0 198.998 0.0
0.0 203.232 0.0
0.0 207.466 0.0
0.0 211.7 0.0
0.0 215.934 0.0
0.0 220.168 0.0
0.0 224.402 0.0
0.0 228.636 0.0
0.0 232.87 0.0
0.0 237.10399999999998 0.0
0.0 241.338 0.0
0.0 245.572 0.0
0.0 249.806 0.0
0.0 254.04 0.0
0.0 258.274 0.0
0.0 262.508 0.0
0.0 266.742 0.0
0.0 270.976 0.0
0.0 275.21 0.0
0.0 279.444 0.0
0.0 283.678 0.0
0.0 287.912 0.0
0.0 292.146 0.0
0.0 296.38 0.0
0.0 300.614 0.0
0.0 304.848 0.0
0.0 309.082 0.0
0.0 313.316 0.0
0.0 317.55 0.0
0.0 321.784 0.0
0.0 326.018 0.0
0.0 330.252 0.0
0.0 334.486 0.0
4.234 0.0 0.0
4.234 4.234 0.0
4.234 8.468 0.0
4.234 12.702 0.0
4.234 16.936 0.0
4.234 21.17 0.0
4.234 25.404 0.0
4.234 29.637999999999998 0.0
4.234 33.872 0.0
4.234 38.106 0.0
4.234 42.34 0.0
4.234 46.574 0.0
4.234 50.808 0.0
4.234 55.042 0.0
4.234 59.275999999999996 0.0
4.234 63.51 0.0
4.234 67.744 0.0
4.234 71.978 0.0
4.234 76.212 0.0
4.234 80.446 0.0
4.234 84.68 0.0
4.234 88.914 0.0
4.234 93.148 0.0
4.234 97.382 0.0
4.234 101.616 0.0
4.234 105.85 0.0
4.234 110.084 0.0
4.234 114.318 0.0
4.234 118.55199999999999 0.0
4.234 122.786 0.0
4.234 127.02 0.0
4.234 131.254 0.0
4.234 135.488 0.0
4.234 139.722 0.0
4.234 143.956 0.0
4.234 148.19 0.0
4.234 152.424 0.0
4.234 156.658 0.0
4.234 160.892 0.0
4.234 165.126 0.0
4.234 169.36 0.0
4.234 173.594 0.0
4.234 177.828 0.0
4.234 182.062 0.0
4.234 186.296 0.0
4.234 190.53 0.0
4.234 194.764 0.0
4.234 198.998 0.0
4.234 203.232 0.0
4.234 207.466 0.0
4.234 211.7 0.0
4.234 215.934 0.0
4.234 220.168 0.0
4.234 224.402 0.0
4.234 228.636 0.0
4.234 232.87 0.0
4.234 237.10399999999998 0.0
4.234 241.338 0.0
4.234 245.572 0.0
4.234 249.806 0.0
4.234 254.04 0.0
4.234 258.274 0.0
4.234 262.508 0.0
4.234 266.742 0.0
4.234 270.976 0.0
4.234 275.21 0.0
4.234 279.444 0.0
4.234 283.678 0.0
4.234 287.912 0.0
4.234 292.146 0.0
4.234 296.38 0.0
4.234 300.614 0.0
4.234 304.848 0.0
4.234 309.082 0.0
4.234 313.316 0.0
4.234 317.55 0.0
4.234 321.784 0.0
4.234 326.018 0.0
4.234 330.252 0.0
4.234 334.486 0.0
8.468 0.0 0.0
8.468 4.234 0.0
8.468 8.468 0.0
8.468 12.702 0.0
8.468 16.936 0.0
8.468 21.17 0.0
8.468 25.404 0.0
8.468 29.637999999999998 0.0
8.468 33.872 0.0
8.468 38.106 0.0
8.468 42.34 0.0
8.468 46.574 0.0
8.468 50.808 0.0
8.468 55.042 0.0
8.468 59.275999999999996 0.0
8.468 63.51 0.0
8.468 67.744 0.0
8.468 71.978 0.0
8.468 76.212 0.0
8.468 80.446 0.0
8.468 84.68 0.0
8.468 88.914 0.0
8.468 93.148 0.0
8.468 97.382 0.0
8.468 101.616 0.0
8.468 105.85 0.0
8.468 110.084 0.0
8.468 114.318 0.0
8.468 118.55199999999999 0.0
8.468 122.786 0.0
8.468 127.02 0.0
8.468 131.254 0.0
8.468 135.488 0.0
8.468 139.722 0.0
8.468 143.956 0.0
8.468 148.19 0.0
8.468 152.424 0.0
8.468 156.658 0.0
8.468 160.892 0.0
8.468 165.126 0.0
8.468 169.36 0.0
8.468 173.594 0.0
8.468 177.828 0.0
8.468 182.062 0.0
8.468 186.296 0.0
8.468 190.53 0.0
8.468 194.764 0.0
8.468 198.998 0.0
8.468 203.232 0.0
8.468 207.466 0.0
8.468 211.7 0.0
8.468 215.934 0.0
8.468 220.168 0.0
8.468 224.402 0.0
8.468 228.636 0.0
8.468 232.87 0.0
8.468 237.10399999999998 0.0
8.468 241.338 0.0
8.468 245.572 0.0
8.468 249.806 0.0
8.468 254.04 0.0
8.468 258.274 0.0
8.468 262.508 0.0
8.468 266.742 0.0
8.468 270.976 0.0
8.468 275.21 0.0
8.468 279.444 0.0
8.468 283.678 0.0
8.468 287.912 0.0
8.468 292.146 0.0
8.468 296.38 0.0
8.468 300.614 0.0
8.468 304.848 0.0
8.468 309.082 0.0
8.468 313.316 0.0
8.468 317.55 0.0
8.468 321.784 0.0
8.468 326.018 0.0
8.468 330.252 0.0
8.468 334.486 0.0
12.702 0.0 0.0
12.702 4.234 0.0
12.702 8.468 0.0
12.702 12.702 0.0
12.702 16.936 0.0
12.702 21.17 0.0
12.702 25.404 0.0
12.702 29.637999999999998 0.0
12.702 33.872 0.0
12.702 38.106 0.0
12.702 42.34 0.0
12.702 46.574 0.0
12.702 50.808 0.0
12.702 55.042 0.0
12.702 59.275999999999996 0.0
12.702 63.51 0.0
12.702 67.744 0.0
12.702 71.978 0.0
12.702 76.212 0.0
12.702 80.446 0.0
12.702 84.68 0.0
12.702 88.914 0.0
12.702 93.148 0.0
12.702 97.382 0.0
12.702 101.616 0.0
12.702 105.85 0.0
12.702 110.084 0.0
12.702 114.318 0.0
12.702 118.55199999999999 0.0
12.702 122.786 0.0
12.702 127.02 0.0
12.702 131.254 0.0
12.702 135.488 0.0
12.702 139.722 0.0
12.702 143.956 0.0
12.702 148.19 0.0
12.702 152.424 0.0
12.702 156.658 0.0
12.702 160.892 0.0
12.702 165.126 0.0
12.702 169.36 0.0
12.702 173.594 0.0
12.702 177.828 0.0
12.702 182.062 0.0
12.702 186.296 0.0
12.702 190.53 0.0
12.702 194.764 0.0
12.702 198.998 0.0
12.702 203.232 0.0
12.702 207.466 0.0
12.702 211.7 0.0
12.702 215.934 0.0
12.702 220.168 0.0
12.702 224.402 0.0
12.702 228.636 0.0
12.702 232.87 0.0
12.702 237.10399999999998 0.0
12.702 241.338 0.0
12.702 245.572 0.0
12.702 249.806 0.0
12.702 254.04 0.0
12.702 258.274 0.0
12.702 262.508 0.0
12.702 266.742 0.0
12.702 270.976 0.0
12.702 275.21 0.0
12.702 279.444 0.0
12.702 283.678 0.0
12.702 287.912 0.0
12.702 292.146 0.0
12.702 296.38 0.0
12.702 300.614 0.0
12.702 304.848 0.0
12.702 309.082 0.0
12.702 313.316 0.0
12.702 317.55 0.0
12.702 321.784 0.0
12.702 326.018 0.0
12.702 330.252 0.0
12.702 334.486 0.0
16.936 0.0 0.0
16.936 4.234 0.0
16.936 8.468 0.0
16.936 12.702 0.0
16.936 16.936 0.0
16.936 21.17 0.0
16.936 25.404 0.0
16.936 29.637999999999998 0.0
16.936 33.872 0.0
16.936 38.106 0.0
16.936 42.34 0.0
16.936 46.574 0.0
16.936 50.808 0.0
16.936 55.042 0.0
16.936 59.275999999999996 0.0
16.936 63.51 0.0
16.936 67.744 0.0
16.936 71.978 0.0
16.936 76.212 0.0
16.936 80.446 0.0
16.936 84.68 0.0
16.936 88.914 0.0
16.936 93.148 0.0
16.936 97.382 0.0
16.936 101.616 0.0
16.936 105.85 0.0
16.936 110.084 0.0
16.936 114.318 0.0
16.936 118.55199999999999 0.0
16.936 122.786 0.0
16.936 127.02 0.0
16.936 131.254 0.0
16.936 135.488 0.0
16.936 139.722 0.0
16.936 143.956 0.0
16.936 148.19 0.0
16.936 152.424 0.0
16.936 156.658 0.0
16.936 160.892 0.0
16.936 165.126 0.0
16.936 169.36 0.0
16.936 173.594 0.0
16.936 177.828 0.0
16.936 182.062 0.0
16.936 186.296 0.0
16.936 190.53 0.0
16.936 194.764 0.0
16.936 198.998 0.0
16.936 203.232 0.0
16.936 207.466 0.0
16.936 211.7 0.0
16.936 215.934 0.0
16.936 220.168 0.0
16.936 224.402 0.0
16.936 228.636 0.0
16.936 232.87 0.0
16.936 237.10399999999998 0.0
16.936 241.338 0.0
16.936 245.572 0.0
16.936 249.806 0.0
16.936 254.04 0.0
16.936 258.274 0.0
16.936 262.508 0.0
16.936 266.742 0.0
16.936 270.976 0.0
16.936 275.21 0.0
16.936 279.444 0.0
16.936 283.678 0.0
16.936 287.912 0.0
16.936 292.146 0.0
16.936 296.38 0.0
16.936 300.614 0.0
16.936 304.848 0.0
16.936 309.082 0.0
16.936 313.316 0.0
16.936 317.55 0.0
16.936 321.784 0.0
16.936 326.018 0.0
16.936 330.252 0.0
16.936 334.486 0.0
21.17 0.0 0.0
21.17 4.234 0.0
21.17 8.468 0.0
21.17 12.702 0.0
21.17 16.936 0.0
21.17 21.17 0.0
21.17 25.404 0.0
21.17 29.637999999999998 0.0
21.17 33.872 0.0
21.17 38.106 0.0
21.17 42.34 0.0
21.17 46.574 0.0
21.17 50.808 0.0
21.17 55.042 0.0
21.17 59.275999999999996 0.0
21.17 63.51 0.0
21.17 67.744 0.0
21.17 71.978 0.0
21.17 76.212 0.0
21.17 80.446 0.0
21.17 84.68 0.0
21.17 88.914 0.0
21.17 93.148 0.0
21.17 97.382 0.0
21.17 101.616 0.0
21.17 105.85 0.0
21.17 110.084 0.0
21.17 114.318 0.0
21.17 118.55199999999999 0.0
21.17 122.786 0.0
21.17 127.02 0.0
21.17 131.254 0.0
21.17 135.488 0.0
21.17 139.722 0.0
21.17 143.956 0.0
21.17 148.19 0.0
21.17 152.424 0.0
21.17 156.658 0.0
21.17 160.892 0.0
21.17 165.126 0.0
21.17 169.36 0.0
21.17 173.594 0.0
21.17 177.828 0.0
21.17 182.062 0.0
21.17 186.296 0.0
21.17 190.53 0.0
21.17 194.764 0.0
21.17 198.998 0.0
21.17 203.232 0.0
21.17 207.466 0.0
21.17 211.7 0.0
21.17 215.934 0.0
21.17 220.168 0.0
21.17 224.402 0.0
21.17 228.636 0.0
21.17 232.87 0.0
21.17 237.10399999999998 0.0
21.17 241.338 0.0
21.17 245.572 0.0
21.17 249.806 0.0
21.17 254.04 0.0
21.17 258.274 0.0
21.17 262.508 0.0
21.17 266.742 0.0
21.17 270.976 0.0
21.17 275.21 0.0
21.17 279.444 0.0
21.17 283.678 0.0
21.17 287.912 0.0
21.17 292.146 0.0
21.17 296.38 0.0
21.17 300.614 0.0
21.17 304.848 0.0
21.17 309.082 0.0
21.17 313.316 0.0
21.17 317.55 0.0
21.17 321.784 0.0
21.17 326.018 0.0
21.17 330.252 0.0
21.17 334.486 0.0
25.404 0.0 0.0
25.404 4.234 0.0
25.404 8.468 0.0
25.404 12.702 0.0
25.404 16.936 0.0
25.404 21.17 0.0
25.404 25.404 0.0
25.404 29.637999999999998 0.0
25.404 33.872 0.0
25.404 38.106 0.0
25.404 42.34 0.0
25.404 46.574 0.0
25.404 50.808 0.0
25.404 55.042 0.0
25.404 59.275999999999996 0.0
25.404 63.51 0.0
25.404 67.744 0.0
25.404 71.978 0.0
25.404 76.212 0.0
25.404 80.446 0.0
25.404 84.68 0.0
25.404 88.914 0.0
25.404 93.148 0.0
25.404 97.382 0.0
25.404 101.616 0.0
25.404 105.85 0.0
25.404 110.084 0.0
25.404 114.318 0.0
25.404 118.55199999999999 0.0
25.404 122.786 0.0
25.404 127.02 0.0
25.404 131.254 0.0
25.404 135.488 0.0
25.404 139.722 0.0
25.404 143.956 0.0
25.404 148.19 0.0
25.404 152.424 0.0
25.404 156.658 0.0
25.404 160.892 0.0
25.404 165.126 0.0
25.404 169.36 0.0
25.404 173.594 0.0
25.404 177.828 0.0
25.404 182.062 0.0
25.404 186.296 0.0
25.404 190.53 0.0
25.404 194.764 0.0
25.404 198.998 0.0
25.404 203.232 0.0
25.404 207.466 0.0
25.404 211.7 0.0
25.404 215.934 0.0
25.404 220.168 0.0
25.404 224.402 0.0
25.404 228.636 0.0
25.404 232.87 0.0
25.404 237.10399999999998 0.0
25.404 241.338 0.0
25.404 245.572 0.0
25.404 249.806 0.0
25.404 254.04 0.0
25.404 258.274 0.0
25.404 262.508 0.0
25.404 266.742 0.0
25.404 270.976 0.0
25.404 275.21 0.0
[...]
POINT_DATA 6400
VECTORS vector float
0.0 0.0 0.2
-0.16061343016887855 0.0 0.11917770785422406
0.19141540458131426 0.0 0.057966739506132195
0.06751106149102108 0.0 0.1882611393154614
-0.11095726894825947 0.0 0.1663985711102821
-0.19974739132120353 0.0 0.01004886363595398
0.12709709352695803 0.0 0.1544225657635557
-0.04827598850643528 0.0 0.1940861379226413
-0.18463131007289652 0.0 0.0768848446754362
0.17176337481966766 0.0 0.10245654235117621
0.02007234297024322 0.0 0.19899020339626003
-0.14784161655509373 0.0 0.13469542091094502
0.19626659283523465 0.0 0.03846328816999681
0.08606441006952191 0.0 0.18053508611731175
-0.09369700163611844 0.0 0.17669428933726528
-0.1977303489475828 0.0 0.030045117824151403
0.14195349597176943 0.0 0.1408872065923405
-0.028553426229489944 0.0 0.19795126130074817
-0.1759828148659223 0.0 0.09502656929441643
0.181178858745059 0.0 0.08470077416315602
0.03994199610288188 0.0 0.19597101047684928
-0.1335769033184214 0.0 0.14885298418191392
0.19913588770042887 0.0 0.01857143585623356
0.10374868315811155 0.0 0.1709859957509906
-0.07549058518365066 0.0 0.18520575463151784
-0.19371663222572616 0.0 0.0497379774329712
0.15537645683536774 0.0 0.12592917319385175
-0.008542532424227643 0.0 0.19981747956517973
-0.1655572511712653 0.0 0.11220871884401223
0.18876480470814744 0.0 0.06608970043429582
0.059408316315406995 0.0 0.1909729089493286
-0.11796333504865888 0.0 0.16150743507404808
-0.1999943151347966 0.0 0.0015079501860712707
0.12038530556774595 0.0 0.15971029460670483
-0.056521867365853996 0.0 0.19184701850557076
-0.1877467715307749 0.0 0.06892858463490323
0.16723043151483016 0.0 0.10969951128133477
0.011554623583328245 0.0 0.1996659477072833
-0.1534598959770359 0.0 0.1282577885616204
0.19444461008423689 0.0 0.04681125515502751
0.07827473336744138 0.0 0.18404636947317368
-0.10115857702791548 0.0 0.17253098937201772
-0.19883320676726018 0.0 0.02157210899861109
0.13580628125035518 0.0 0.14682184433165732
-0.03698239365102652 0.0 0.19655101770237804
-0.1798810503132739 0.0 0.08742315333018724
0.17739571897643736 0.0 0.09236210742957779
0.031535101394364044 0.0 0.19749819589061357
-0.139812907965129 0.0 0.14301171548629985
0.19816092039154012 0.0 0.027060111411036328
0.09635073482034351 0.0 0.17526133600877247
-0.08333232313195368 0.0 0.18181233159890908
-0.19566428743068054 0.0 0.04141843338712892
0.14985588971723235 0.0 0.13245079205900093
-0.017069472981129926 0.0 0.19927025139781018
-0.170198896358939 0.0 0.10503492599225817
0.18576967049264015 0.0 0.0740920341538542
0.05119713882253499 0.0 0.1933361139993925
-0.12475409395699817 0.0 0.15632151496505042
0.19987620845478984 0.0 0.0070357155810469
0.11345378982535133 0.0 0.1647065195256855
-0.06466458226718784 0.0 0.18925773907613422
-0.19051955676489452 0.0 0.06084651584197848
0.16239225849924144 0.0 0.11674225618650494
0.0030158146472078436 0.0 0.19997726086236328
-0.1587980797295672 0.0 0.12158605953892095
0.19226772618542887 0.0 0.05507378203360441
0.07034218928166255 0.0 0.18722173059520297
-0.1084355173450641 0.0 0.1680527850947681
-0.19957315335337888 0.0 0.013059726665927321
0.1294111923138885 0.0 0.15248850220228985
-0.04534386064686533 0.0 0.1947920283318536
-0.18345096608543598 0.0 0.07966017224636306
0.17328879577018771 0.0 0.09985486097590932
0.0230706486816616 0.0 0.19866490673847598
-0.1457937254842828 0.0 0.13690942118573726
0.1968242689091093 0.0 0.035499396732826725
0.08877692670242887 0.0 0.17921678851399936
-0.09102196256173045 0.0 0.17808706390810913
-0.19725481532742872 0.0 0.03302329223657135
0.0 0.16061343016887855 0.11917770785422406
-0.1300009515436356 0.1300009515436356 -0.07873693666570103
0.07042558295598234 0.12149308992708162 -0.14240669354099939
0.10200686828666677 0.15362810762485013 0.077414490697505
-0.13849747799473644 0.14358643056471407 0.014191037551287014
-0.012504395843819417 0.11924537125725464 -0.16007554940808602
0.1428188525764057 0.13928875033104454 -0.0141922295632095
-0.07681422989247749 0.1569252658646738 0.09733465477067794
-0.09147181981418773 0.12334402388373647 -0.12813726215293128
0.11666472671981341 0.12689549194025226 -0.10142423608108982
0.033377725869975665 0.15995722609728594 0.11532394909562585
-0.1389529211356586 0.13356572702229336 -0.0534067624264349
0.04739697730107721 0.12018070285116743 -0.15267653783381574
0.12151345427835328 0.14969801401385505 0.05315058823428205
-0.1279290434794009 0.14791010023462034 0.0419137457527973
-0.0371773976204603 0.11978670745387279 -0.15578506290248273
0.14126307141158004 0.13520348290111 -0.04200908076566412
-0.04703688091359215 0.15929380981063598 0.11141370647246905
-0.10984078784679295 0.1257260335620173 -0.11012704395360084
0.0996464619201689 0.12429219831088584 -0.12092159470433626
0.06463532862990098 0.15806119098305296 0.10411020217982273
-0.14284684937481884 0.13751771100414253 -0.026146831239539682
0.023070459706186947 0.11940929027491726 -0.1587739754650798
0.13478176675610887 0.14543364723041438 0.026132921829777396
-0.11103595117423873 0.15201737683897512 0.06754061508328982
-0.06084069596157378 0.12086930581493052 -0.14727192749036777
0.13438137152870405 0.13146325748622753 -0.06825729936918289
-0.014312053947068621 0.16049397656836087 0.11847720707836858
-0.12482830546380555 0.1286219678927667 -0.08873715980595137
0.07965253846148125 0.12221420870395294 -0.13681798239818072
0.0919438169295942 0.15512450437681152 0.08650273215492009
-0.14108123681963997 0.14174461920457082 0.002132497125880292
-0.0018777092108614364 0.11917923026730744 -0.16060132403256072
0.14172710576879552 0.1410988304126971 -0.002132497730264657
-0.08815818804190637 0.15562092240956343 0.08950006921541749
-0.0828137199106287 0.12249189129737581 -0.13467599771657832
0.122823565703387 0.1281558937677348 -0.0921435760131918
0.019331875365018146 0.1603950888148143 0.11789696382417679
-0.1357283126993891 0.13199840666239246 -0.06445343877844323
0.057382225217310234 0.12067243494446044 -0.14881345259648018
0.11396525079427333 0.15142601185922483 0.0638911930066131
-0.13319706504741283 0.1460836853948847 0.03030014396341439
-0.026775524117919253 0.11949049039794434 -0.1581299908703896
0.14261005786824274 0.13690411726222593 -0.03032546902303654
-0.060158623294908245 0.15841797618947362 0.10622939735917124
-0.10240611386905384 0.12464960004930521 -0.11821787111002564
0.10728372536519507 0.12533540328306678 -0.11305414170049861
0.05173683680067061 0.15900815320901882 0.10972559833930272
-0.14185088311566327 0.1357969590257454 -0.037914547058701134
0.033524291251684414 0.11967099436190937 -0.15670027123302657
0.1299197194839002 0.14726882125398902 0.03785182658320894
-0.11897749117272771 0.15031588114657488 0.057004319743088706
-0.05095062763867386 0.12034309878431873 -0.151398719011136
0.13791665964496067 0.1330041644982147 -0.05734882055027746
-0.02845642216671017 0.16013807355169052 0.11638741098857437
-0.11891717967117146 0.12733008027704792 -0.09821280484587983
0.08846845722094171 0.1230322624702863 -0.1305235399013871
0.08091872057862982 0.15648301927707692 0.09468487385980724
-0.14255688392326915 0.13992377637701833 -0.009943422473260102
0.00875806819982949 0.119210862771219 -0.16034982519088922
0.13953760252347933 0.14293492060254107 0.009943136041751979
-0.09856996078284509 0.15417052292113387 0.08071810635472396
-0.07372575358042457 0.12173650482544295 -0.1405159658255368
0.12826301932072662 0.12950452415772204 -0.08232360595487126
0.005059993225062807 0.16059852765526458 0.11909034126881807
-0.13164019065853377 0.1305077667756244 -0.07509049883057184
0.06708082895881662 0.12126180117983965 -0.14420727429924965
0.10531480952168891 0.15307144995762967 0.07401298604487769
-0.13731626320645457 0.14423863107136506 0.018424471923893234
-0.016243172569294622 0.11929205967485523 -0.15970461434603225
0.142948260264359 0.13865860374987143 -0.018427872734779225
-0.07260556687166635 0.15734651650113804 0.09985241811894739
-0.0944149623256831 0.12366775176307138 -0.12566663066585018
0.11432942332150907 0.12647223794061122 -0.10456364565787
0.03825076877798054 0.1597482430207592 0.11409372261291995
-0.13987525072397455 0.13413607544563194 -0.04942092167239484
0.04381413935237058 0.12003048227567069 -0.15386034095074974
0.12390819007009246 0.14907269462010905 0.04923507034882307
-0.12579529329364522 0.1485465974882682 0.04592877703384038
-0.040807798134711304 0.11991460084414428 -0.1547747140710853
0.0 -0.19141540458131426 0.057966739506132195
-0.12149308992708162 -0.07042558295598234 -0.14240669354099939
0.06031333750294171 -0.06031333750294171 -0.1808994268606523
0.15028555011299197 -0.13120106636732373 -0.014160989065475062
-0.15830121104002293 -0.09513375624788713 -0.07674825734457902
-0.010498316673003452 -0.05803331222056762 -0.19110709044863683
0.15142349601838623 -0.08560569239056709 -0.09870456060335493
-0.12871291356403025 -0.15242359006216988 0.014143375637310236
-0.07970173281674126 -0.06229847699945479 -0.17252980481515998
0.10534655907751463 -0.0664210678596264 -0.15649391117521036
0.06570552078592903 -0.1825273109148333 0.04864735664401129
-0.1356672347291955 -0.07559293317314786 -0.12601630797326732
0.040117701626336044 -0.05896563920004482 -0.1868518755858512
0.1592220734535854 -0.1137034965690347 -0.04147102835856095
-0.16031779447397426 -0.10744575977671203 -0.052474884287682245
-0.0313593980444563 -0.05857013594529138 -0.18864285655608443
0.14097585559880005 -0.07821370279622251 -0.11835719172526211
-0.08894229536336205 -0.1746013471853202 0.04004544489161966
-0.09798690080385457 -0.0650142369867385 -0.16177674820532084
0.08762564753725796 -0.06335663450476892 -0.16824887149073353
0.11432788827573843 -0.16206392154858806 0.02577633206457738
-0.14736386363180584 -0.08223521672307141 -0.10733713628570507
0.019396593344218848 -0.05819507100278707 -0.19036046301062515
0.15985139447016317 -0.09998366516576475 -0.06671430420805219
-0.1553330303589239 -0.12327423180685125 -0.025982945405483317
-0.0518122410027881 -0.059666849147315085 -0.18372631492276917
0.1277842513412519 -0.07246387028315747 -0.13572093653059383
-0.029184524638168674 -0.18970914643845257 0.05620234229316326
-0.11484692856595652 -0.06859624343942212 -0.14867662353230124
0.06866879432394536 -0.061074563875884 -0.1776358475462266
0.1429776610436445 -0.13983147512686994 -0.00213237105876533
-0.15588307186682723 -0.09078522028556107 -0.08636267528894494
-0.0015755746079224465 -0.05796823610534412 -0.19140846681244264
0.15484378132975352 -0.08935999520481674 -0.0896559793906608
-0.13977864724256603 -0.14302930750966966 0.0021323621509120485
-0.07157885427159558 -0.0613717719651157 -0.17638019510995992
0.1124225481964668 -0.06799691046747962 -0.1507898896607152
0.03915783121998651 -0.18832786498804543 0.05476567833225104
-0.12991340244753566 -0.07323708816625277 -0.13326228566790063
0.04878117867815142 -0.059465058870093485 -0.18461934725360338
0.15664715276448912 -0.12065057953406289 -0.030084999399594123
-0.16016653540925127 -0.10182577300037488 -0.06307291722976818
-0.022527419066050925 -0.05827545511249273 -0.1899907543057145
0.1457918097941577 -0.08112941666863892 -0.11028493073829498
-0.10838216395831696 -0.16544104425440065 0.029708036147243856
-0.09037037602134299 -0.06376317968908628 -0.1666356866151377
0.09532671353231786 -0.064555523999265 -0.16354021526312032
0.09624506431207579 -0.17146554382100032 0.03655755568597296
-0.1427345200576535 -0.0792074246422049 -0.11555535758008253
0.028249558135229128 -0.05845475260460206 -0.18916924793184298
0.1603963508234899 -0.10539235111795915 -0.05626244723025099
-0.15849575745220884 -0.11607443404503369 -0.037494274639946194
-0.04318732278747942 -0.05912985412822165 -0.18611425389052094
0.13368506190662405 -0.07473262960010532 -0.12862090924914024
-0.05667050541964992 -0.18486311357103924 0.05112810436836564
-0.10787779007537082 -0.06695720652185407 -0.15452868634413486
0.0768563500595495 -0.06195682947375836 -0.17393807155733218
0.13297432530815875 -0.14906129093282253 0.009927756759733227
-0.15270764515444313 -0.08688463421345127 -0.09555854461522244
0.0073508356251982725 -0.057999345509199635 -0.19126432269536262
0.15754066298572433 -0.09354458006638201 -0.08018946967166377
-0.14798570409793804 -0.1341699932296986 -0.009931983657867838
-0.0632800881940318 -0.06056860301736103 -0.17979731579387076
0.11918621078885368 -0.06975709193056599 -0.14466718799778167
0.01039244942595219 -0.1912002328267266 0.05774485225485102
-0.12375577761143058 -0.07112007597807653 -0.14009440495845207
0.05732844884370114 -0.06007235503660488 -0.1819471382394657
0.15230438939517948 -0.1283204997371085 -0.018363613973841862
-0.1589538799906567 -0.09678534931474148 -0.07325476226116212
-0.013642750572547083 -0.058079315710100776 -0.19089439081194007
0.15005983491506855 -0.08437451429578151 -0.10179875874790097
-0.12403735864547925 -0.1558183475638174 0.018313279955654186
-0.0825223384447983 -0.06265648687335741 -0.17106790555300244
0.10278000885082227 -0.06590596363009925 -0.15840667201419562
0.07432231391425757 -0.17992603824798942 0.04585645445096709
-0.13759400306699573 -0.07648620206803178 -0.12336024972902651
0.03703627023061178 -0.05881436102506983 -0.18753449182648468
0.159764644178794 -0.11141858483093514 -0.04539997163760196
-0.16008432807039907 -0.10957866548311179 -0.04863665261085636
-0.03446006188549107 -0.05869807110902551 -0.18806126816260682
0.0 -0.06751106149102108 0.1882611393154614
-0.15362810762485013 -0.10200686828666677 0.077414490697505
0.13120106636732373 -0.15028555011299197 -0.014160989065475062
0.0711348879683678 -0.0711348879683678 0.17285732679714658
-0.11464383147220546 -0.07891888848732537 0.1436266024986237
-0.029480842257032902 -0.18667125064325296 -0.0654578041420562
0.12949940649518119 -0.08386041629010645 0.1272687483125605
-0.05108338565087703 -0.06929303745447099 0.18052413320876814
-0.14862881313451323 -0.13307379317741316 0.014171855051510272
0.15638823252580653 -0.11294562955474706 0.05278262490570295
0.02130999946447934 -0.06780930497364246 0.1869432589900354
-0.14614685599495097 -0.09327721306068304 0.09970184555173993
0.09998949391336162 -0.16834382762702485 -0.04077323640370422
0.09012344305801501 -0.07372048445829076 0.16261320728219966
-0.09778708105219429 -0.07507042849704 0.1574868805474361
-0.08195430359969191 -0.17533157705136682 -0.050421525266201084
0.14183077567679975 -0.09013395880300633 0.10844307511969253
-0.030293350405829114 -0.06811871173422265 0.18558597477411792
-0.15574044455521158 -0.11836456838783188 0.041650244658433214
0.15272059644652414 -0.1264847979107278 0.026038727282650664
0.042319659380031745 -0.06871573335170493 0.18299506665452892
-0.1350838575413812 -0.08634757722343492 0.11956775208802235
0.053246295392930645 -0.18299111326806985 -0.06065545723050164
0.1076978561891409 -0.07716130118417482 0.14982424827720042
-0.07935450662351134 -0.07213731047371916 0.16881667783769871
-0.11980505656319398 -0.15803589362766082 -0.025911479062310873
0.15094915721562827 -0.09805161383498297 0.087179314979225
-0.009074128340958476 -0.06756478888957922 0.1880230291670635
-0.1554611855807312 -0.10636109108213535 0.06722453481915047
0.14009167167433093 -0.1427227254223631 -0.0021324107259656343
0.0627235935872894 -0.07026637411392388 0.17643238783278606
-0.12122950704937246 -0.08087315684181878 0.13697787822493357
-0.004466281343521702 -0.18822488913927088 -0.06746438645292571
0.12346099390424464 -0.08161293525698424 0.13452401935310798
-0.05971389398356772 -0.0699905580229505 0.1775825798127599
-0.14268327674184764 -0.14013184983881197 0.0021324162262494244
0.15588543123135642 -0.1079993507555303 0.0635285177396576
0.012272459824159438 -0.06760945457579944 0.18782531347458817
-0.14982015890592928 -0.09674470965510765 0.09052282109584864
0.11513773335602347 -0.16077077282208696 -0.029934277406113333
0.0822049228635921 -0.07252447497236438 0.1672798588801825
-0.10516677135403976 -0.07658510920479378 0.15190349321545218
-0.06116869016423465 -0.18125219603684195 -0.05836122664418623
0.13693769504782172 -0.0872867051334143 0.11674373123188318
-0.03919926915075942 -0.0685398698131261 0.18375446537171836
-0.15376937379628444 -0.1242778075079978 0.030166309739568617
0.1552056809216528 -0.12039439371239646 0.03763491161502295
0.033446660865244664 -0.068254457840311 0.18499364816633712
-0.14016659143883187 -0.08909662364676763 0.11142314974531027
0.0749169710046974 -0.1775694453065604 -0.05344660465363332
0.10042564816940386 -0.07558560846073545 0.15556832898561168
-0.08735632560623321 -0.07328129779789698 0.16431288376032388
-0.10566518553260616 -0.16571518475933772 -0.037058684630440986
0.14752040919943185 -0.09446248174908264 0.09651201174691378
-0.018125275813493054 -0.06772634864018218 0.18730887879797184
-0.156334138816963 -0.1111473138624284 0.056620770583994756
0.14675567706047707 -0.13551401119599282 0.009935996180217782
0.054145905375164685 -0.06952525062451645 0.17953957908133208
-0.12741774847737808 -0.08304088789120506 0.1298804385240361
0.020743453771586866 -0.1874767040207555 -0.06649958327042414
0.11701116933371543 -0.07958535188583522 0.14133137661667478
-0.06818676484634151 -0.07081342183807914 0.17417239846592225
-0.13461101249883797 -0.14758456263907865 -0.009933387371363515
0.1543771250243744 -0.10349638095825489 0.07386611129437139
0.003203816313720728 -0.0675177507526153 0.1882314768956979
-0.1527738866239955 -0.10056705128654451 0.0809098743128927
0.12747868964752107 -0.15301074094844358 -0.018354749798329885
0.07405914213338632 -0.07147302443963639 0.171484256548285
-0.11223163968056807 -0.07827690702562834 0.14586563982347686
-0.03806063885739314 -0.18559893764737914 -0.06406576397680251
0.13152456267144388 -0.08470977893763873 0.12460153597135881
-0.048004275583504855 -0.0690757908297583 0.1814500610276734
-0.15027127957926412 -0.13069240784082922 0.018385784355773663
0.15629925178303106 -0.1148028905759637 0.0488962187440703
0.024487974398908284 -0.06790590134449329 0.18651843788867192
-0.14469333320592379 -0.09213231258927303 0.10283713484297392
0.0939522089531018 -0.17090036679354248 -0.04434012925855484
0.09285882351526263 -0.07417883341428701 0.16085626990781793
-0.09511315962029783 -0.07457575504071622 0.1593484974110231
-0.08864631477337398 -0.1729610540187735 -0.04718373310596363
0.0 0.11095726894825947 0.1663985711102821
-0.14358643056471407 0.13849747799473644 0.014191037551287014
0.09513375624788713 0.15830121104002293 -0.07674825734457902
0.07891888848732537 0.11464383147220546 0.1436266024986237
-0.12185985351593026 0.12185985351593026 0.10149065081155031
-0.01806170346582536 0.16613685696718167 -0.10987410807364405
0.1339193016919375 0.12598015667489093 0.07870591311022165
-0.05724250303469311 0.11279718819810224 0.15491962490570738
-0.1175461589385022 0.1528859938973862 -0.05299786211549262
0.13764229742640668 0.1444065871695622 -0.014189275570663552
0.024071228903308303 0.11126891395299397 0.16443784456993393
-0.1433929092429129 0.1329485156814652 0.041990067360614614
0.06651671267510911 0.1626834362599113 -0.09544436338288581
0.0985826481134024 0.11714415325430257 0.12868064675498622
-0.10617537336292798 0.11840797151915222 0.12126970921034848
-0.052802618035793926 0.16410188249517968 -0.10140244420182531
0.14162272948291962 0.1307436667032614 0.053376924890764135
-0.03416165710271509 0.11159064268541366 0.16242077960979268
-0.13311350334849711 0.14696440288409116 -0.026120097840785225
0.12501037430630169 0.15040300290787056 -0.04184905055187543
0.0475702960642332 0.11220691154149919 0.15857703470136963
-0.13776907572879377 0.1279287567348516 0.06821960842095948
0.03315226632172985 0.1655097401381062 -0.10727279784339386
0.11559576767961127 0.12031067124231819 0.11028581449934607
-0.08755815917980528 0.11562578786338272 0.13771073284975252
-0.0836646206825481 0.16032164728347564 -0.08542365397451794
0.14421515993161213 0.13608325903611337 0.02614066288389813
-0.010263385456092768 0.1110135213100225 0.16604415378244683
-0.14184725540249885 0.14097804300215777 0.00213249292144986