# vtk DataFile Version 2.0
test
ASCII
DATASET UNSTRUCTURED_GRID
POINTS 6400 float
0.0 0.0 0.0
0.0 4.234 0.0
0.0 8.468 0.0
0.0 12.702 0.0
0.0 16.936 0.0
0.0 21.17 0.0
0.0 25.404 0.0
0.0 29.637999999999998 0.0
0.0 33.872 0.0
0.0 38.106 0.0
0.0 42.34 0.0
0.0 46.574 0.0
0.0 50.808 0.0
0.0 55.042 0.0
0.0 59.275999999999996 0.0
0.0 63.51 0.0
0.0 67.744 0.0
0.0 71.978 0.0
0.0 76.212 0.0
0.0 80.446 0.0
0.0 84.68 0.0
0.0 88.914 0.0
0.0 93.148 0.0
0.0 97.382 0.0
0.0 101.616 0.0
0.0 105.85 0.0
0.0 110.084 0.0
0.0 114.318 0.0
0.0 118.55199999999999 0.0
0.0 122.786 0.0
0.0 127.02 0.0
0.0 131.254 0.0
0.0 135.488 0.0
0.0 139.722 0.0
0.0 143.956 0.0
0.0 148.19 0.0
0.0 152.424 0.0
0.0 156.658 0.0
0.0 160.892 0.0
0.0 165.126 0.0
0.0 169.36 0.0
0.0 173.594 0.0
0.0 177.828 0.0
0.0 182.062 0.0
0.0 186.296 0.0
0.0 190.53 0.0
0.0 194.764 0.0
0.0 198.998 0.0
0.0 203.232 0.0
0.0 207.466 0.0
0.0 211.7 0.0
0.0 215.934 0.0
0.0 220.168 0.0
0.0 224.402 0.0
0.0 228.636 0.0
0.0 232.87 0.0
0.0 237.10399999999998 0.0
0.0 241.338 0.0
0.0 245.572 0.0
0.0 249.806 0.0
0.0 254.04 0.0
0.0 258.274 0.0
0.0 262.508 0.0
0.0 266.742 0.0
0.0 270.976 0.0
0.0 275.21 0.0
0.0 279.444 0.0
0.0 283.678 0.0
0.0 287.912 0.0
0.0 292.146 0.0
0.0 296.38 0.0
0.0 300.614 0.0
0.0 304.848 0.0
0.0 309.082 0.0
0.0 313.316 0.0
0.0 317.55 0.0
0.0 321.784 0.0
0.0 326.018 0.0
0.0 330.252 0.0
0.0 334.486 0.0
4.234 0.0 0.0
4.234 4.234 0.0
4.234 8.468 0.0
4.234 12.702 0.0
4.234 16.936 0.0
4.234 21.17 0.0
4.234 25.404 0.0
4.234 29.637999999999998 0.0
4.234 33.872 0.0
4.234 38.106 0.0
4.234 42.34 0.0
4.234 46.574 0.0
4.234 50.808 0.0
4.234 55.042 0.0
4.234 59.275999999999996 0.0
4.234 63.51 0.0
4.234 67.744 0.0
4.234 71.978 0.0
4.234 76.212 0.0
4.234 80.446 0.0
4.234 84.68 0.0
4.234 88.914 0.0
4.234 93.148 0.0
4.234 97.382 0.0
4.234 101.616 0.0
4.234 105.85 0.0
4.234 110.084 0.0
4.234 114.318 0.0
4.234 118.55199999999999 0.0
4.234 122.786 0.0
4.234 127.02 0.0
4.234 131.254 0.0
4.234 135.488 0.0
4.234 139.722 0.0
4.234 143.956 0.0
4.234 148.19 0.0
4.234 152.424 0.0
4.234 156.658 0.0
4.234 160.892 0.0
4.234 165.126 0.0
4.234 169.36 0.0
4.234 173.594 0.0
4.234 177.828 0.0
4.234 182.062 0.0
4.234 186.296 0.0
4.234 190.53 0.0
4.234 194.764 0.0
4.234 198.998 0.0
4.234 203.232 0.0
4.234 207.466 0.0
4.234 211.7 0.0
4.234 215.934 0.0
4.234 220.168 0.0
4.234 224.402 0.0
4.234 228.636 0.0
4.234 232.87 0.0
4.234 237.10399999999998 0.0
4.234 241.338 0.0
4.234 245.572 0.0
4.234 249.806 0.0
4.234 254.04 0.0
4.234 258.274 0.0
4.234 262.508 0.0
4.234 266.742 0.0
4.234 270.976 0.0
4.234 275.21 0.0
4.234 279.444 0.0
4.234 283.678 0.0
4.234 287.912 0.0
4.234 292.146 0.0
4.234 296.38 0.0
4.234 300.614 0.0
4.234 304.848 0.0
4.234 309.082 0.0
4.234 313.316 0.0
4.234 317.55 0.0
4.234 321.784 0.0
4.234 326.018 0.0
4.234 330.252 0.0
4.234 334.486 0.0
8.468 0.0 0.0
8.468 4.234 0.0
8.468 8.468 0.0
8.468 12.702 0.0
8.468 16.936 0.0
8.468 21.17 0.0
8.468 25.404 0.0
8.468 29.637999999999998 0.0
8.468 33.872 0.0
8.468 38.106 0.0
8.468 42.34 0.0
8.468 46.574 0.0
8.468 50.808 0.0
8.468 55.042 0.0
8.468 59.275999999999996 0.0
8.468 63.51 0.0
8.468 67.744 0.0
8.468 71.978 0.0
8.468 76.212 0.0
8.468 80.446 0.0
8.468 84.68 0.0
8.468 88.914 0.0
8.468 93.148 0.0
8.468 97.382 0.0
8.468 101.616 0.0
8.468 105.85 0.0
8.468 110.084 0.0
8.468 114.318 0.0
8.468 118.55199999999999 0.0
8.468 122.786 0.0
8.468 127.02 0.0
8.468 131.254 0.0
8.468 135.488 0.0
8.468 139.722 0.0
8.468 143.956 0.0
8.468 148.19 0.0
8.468 152.424 0.0
8.468 156.658 0.0
8.468 160.892 0.0
8.468 165.126 0.0
8.468 169.36 0.0
8.468 173.594 0.0
8.468 177.828 0.0
8.468 182.062 0.0
8.468 186.296 0.0
8.468 190.53 0.0
8.468 194.764 0.0
8.468 198.998 0.0
8.468 203.232 0.0
8.468 207.466 0.0
8.468 211.7 0.0
8.468 215.934 0.0
8.468 220.168 0.0
8.468 224.402 0.0
8.468 228.636 0.0
8.468 232.87 0.0
8.468 237.10399999999998 0.0
8.468 241.338 0.0
8.468 245.572 0.0
8.468 249.806 0.0
8.468 254.04 0.0
8.468 258.274 0.0
8.468 262.508 0.0
8.468 266.742 0.0
8.468 270.976 0.0
8.468 275.21 0.0
8.468 279.444 0.0
8.468 283.678 0.0
8.468 287.912 0.0
8.468 292.146 0.0
8.468 296.38 0.0
8.468 300.614 0.0
8.468 304.848 0.0
8.468 309.082 0.0
8.468 313.316 0.0
8.468 317.55 0.0
8.468 321.784 0.0
8.468 326.018 0.0
8.468 330.252 0.0
8.468 334.486 0.0
12.702 0.0 0.0
12.702 4.234 0.0
12.702 8.468 0.0
12.702 12.702 0.0
12.702 16.936 0.0
12.702 21.17 0.0
12.702 25.404 0.0
12.702 29.637999999999998 0.0
12.702 33.872 0.0
12.702 38.106 0.0
12.702 42.34 0.0
12.702 46.574 0.0
12.702 50.808 0.0
12.702 55.042 0.0
12.702 59.275999999999996 0.0
12.702 63.51 0.0
12.702 67.744 0.0
12.702 71.978 0.0
12.702 76.212 0.0
12.702 80.446 0.0
12.702 84.68 0.0
12.702 88.914 0.0
12.702 93.148 0.0
12.702 97.382 0.0
12.702 101.616 0.0
12.702 105.85 0.0
12.702 110.084 0.0
12.702 114.318 0.0
12.702 118.55199999999999 0.0
12.702 122.786 0.0
12.702 127.02 0.0
12.702 131.254 0.0
12.702 135.488 0.0
12.702 139.722 0.0
12.702 143.956 0.0
12.702 148.19 0.0
12.702 152.424 0.0
12.702 156.658 0.0
12.702 160.892 0.0
12.702 165.126 0.0
12.702 169.36 0.0
12.702 173.594 0.0
12.702 177.828 0.0
12.702 182.062 0.0
12.702 186.296 0.0
12.702 190.53 0.0
12.702 194.764 0.0
12.702 198.998 0.0
12.702 203.232 0.0
12.702 207.466 0.0
12.702 211.7 0.0
12.702 215.934 0.0
12.702 220.168 0.0
12.702 224.402 0.0
12.702 228.636 0.0
12.702 232.87 0.0
12.702 237.10399999999998 0.0
12.702 241.338 0.0
12.702 245.572 0.0
12.702 249.806 0.0
12.702 254.04 0.0
12.702 258.274 0.0
12.702 262.508 0.0
12.702 266.742 0.0
12.702 270.976 0.0
12.702 275.21 0.0
12.702 279.444 0.0
12.702 283.678 0.0
12.702 287.912 0.0
12.702 292.146 0.0
12.702 296.38 0.0
12.702 300.614 0.0
12.702 304.848 0.0
12.702 309.082 0.0
12.702 313.316 0.0
12.702 317.55 0.0
12.702 321.784 0.0
12.702 326.018 0.0
12.702 330.252 0.0
12.702 334.486 0.0
16.936 0.0 0.0
16.936 4.234 0.0
16.936 8.468 0.0
16.936 12.702 0.0
16.936 16.936 0.0
16.936 21.17 0.0
16.936 25.404 0.0
16.936 29.637999999999998 0.0
16.936 33.872 0.0
16.936 38.106 0.0
16.936 42.34 0.0
16.936 46.574 0.0
16.936 50.808 0.0
16.936 55.042 0.0
16.936 59.275999999999996 0.0
16.936 63.51 0.0
16.936 67.744 0.0
16.936 71.978 0.0
16.936 76.212 0.0
16.936 80.446 0.0
16.936 84.68 0.0
16.936 88.914 0.0
16.936 93.148 0.0
16.936 97.382 0.0
16.936 101.616 0.0
16.936 105.85 0.0
16.936 110.084 0.0
16.936 114.318 0.0
16.936 118.55199999999999 0.0
16.936 122.786 0.0
16.936 127.02 0.0
16.936 131.254 0.0
16.936 135.488 0.0
16.936 139.722 0.0
16.936 143.956 0.0
16.936 148.19 0.0
16.936 152.424 0.0
16.936 156.658 0.0
16.936 160.892 0.0
16.936 165.126 0.0
16.936 169.36 0.0
16.936 173.594 0.0
16.936 177.828 0.0
16.936 182.062 0.0
16.936 186.296 0.0
16.936 190.53 0.0
16.936 194.764 0.0
16.936 198.998 0.0
16.936 203.232 0.0
16.936 207.466 0.0
16.936 211.7 0.0
16.936 215.934 0.0
16.936 220.168 0.0
16.936 224.402 0.0
16.936 228.636 0.0
16.936 232.87 0.0
16.936 237.10399999999998 0.0
16.936 241.338 0.0
16.936 245.572 0.0
16.936 249.806 0.0
16.936 254.04 0.0
16.936 258.274 0.0
16.936 262.508 0.0
16.936 266.742 0.0
16.936 270.976 0.0
16.936 275.21 0.0
16.936 279.444 0.0
16.936 283.678 0.0
16.936 287.912 0.0
16.936 292.146 0.0
16.936 296.38 0.0
16.936 300.614 0.0
16.936 304.848 0.0
16.936 309.082 0.0
16.936 313.316 0.0
16.936 317.55 0.0
16.936 321.784 0.0
16.936 326.018 0.0
16.936 330.252 0.0
16.936 334.486 0.0
21.17 0.0 0.0
21.17 4.234 0.0
21.17 8.468 0.0
21.17 12.702 0.0
21.17 16.936 0.0
21.17 21.17 0.0
21.17 25.404 0.0
21.17 29.637999999999998 0.0
21.17 33.872 0.0
21.17 38.106 0.0
21.17 42.34 0.0
21.17 46.574 0.0
21.17 50.808 0.0
21.17 55.042 0.0
21.17 59.275999999999996 0.0
21.17 63.51 0.0
21.17 67.744 0.0
21.17 71.978 0.0
21.17 76.212 0.0
21.17 80.446 0.0
21.17 84.68 0.0
21.17 88.914 0.0
21.17 93.148 0.0
21.17 97.382 0.0
21.17 101.616 0.0
21.17 105.85 0.0
21.17 110.084 0.0
21.17 114.318 0.0
21.17 118.55199999999999 0.0
21.17 122.786 0.0
21.17 127.02 0.0
21.17 131.254 0.0
21.17 135.488 0.0
21.17 139.722 0.0
21.17 143.956 0.0
21.17 148.19 0.0
21.17 152.424 0.0
21.17 156.658 0.0
21.17 160.892 0.0
21.17 165.126 0.0
21.17 169.36 0.0
21.17 173.594 0.0
21.17 177.828 0.0
21.17 182.062 0.0
21.17 186.296 0.0
21.17 190.53 0.0
21.17 194.764 0.0
21.17 198.998 0.0
21.17 203.232 0.0
21.17 207.466 0.0
21.17 211.7 0.0
21.17 215.934 0.0
21.17 220.168 0.0
21.17 224.402 0.0
21.17 228.636 0.0
21.17 232.87 0.0
21.17 237.10399999999998 0.0
21.17 241.338 0.0
21.17 245.572 0.0
21.17 249.806 0.0
21.17 254.04 0.0
21.17 258.274 0.0
21.17 262.508 0.0
21.17 266.742 0.0
21.17 270.976 0.0
21.17 275.21 0.0
21.17 279.444 0.0
21.17 283.678 0.0
21.17 287.912 0.0
21.17 292.146 0.0
21.17 296.38 0.0
21.17 300.614 0.0
21.17 304.848 0.0
21.17 309.082 0.0
21.17 313.316 0.0
21.17 317.55 0.0
21.17 321.784 0.0
21.17 326.018 0.0
21.17 330.252 0.0
21.17 334.486 0.0
25.404 0.0 0.0
25.404 4.234 0.0
25.404 8.468 0.0
25.404 12.702 0.0
25.404 16.936 0.0
25.404 21.17 0.0
25.404 25.404 0.0
25.404 29.637999999999998 0.0
25.404 33.872 0.0
25.404 38.106 0.0
25.404 42.34 0.0
25.404 46.574 0.0
25.404 50.808 0.0
25.404 55.042 0.0
25.404 59.275999999999996 0.0
25.404 63.51 0.0
25.404 67.744 0.0
25.404 71.978 0.0
25.404 76.212 0.0
25.404 80.446 0.0
25.404 84.68 0.0
25.404 88.914 0.0
25.404 93.148 0.0
25.404 97.382 0.0
25.404 101.616 0.0
25.404 105.85 0.0
25.404 110.084 0.0
25.404 114.318 0.0
25.404 118.55199999999999 0.0
25.404 122.786 0.0
25.404 127.02 0.0
25.404 131.254 0.0
25.404 135.488 0.0
25.404 139.722 0.0
25.404 143.956 0.0
25.404 148.19 0.0
25.404 152.424 0.0
25.404 156.658 0.0
25.404 160.892 0.0
25.404 165.126 0.0
25.404 169.36 0.0
25.404 173.594 0.0
25.404 177.828 0.0
25.404 182.062 0.0
25.404 186.296 0.0
25.404 190.53 0.0
25.404 194.764 0.0
25.404 198.998 0.0
25.404 203.232 0.0
25.404 207.466 0.0
25.404 211.7 0.0
25.404 215.934 0.0
25.404 220.168 0.0
25.404 224.402 0.0
25.404 228.636 0.0
25.404 232.87 0.0
25.404 237.10399999999998 0.0
25.404 241.338 0.0
25.404 245.572 0.0
25.404 249.806 0.0
25.404 254.04 0.0
25.404 258.274 0.0
25.404 262.508 0.0
25.404 266.742 0.0
25.404 270.976 0.0
25.404 275.21 0.0
[...]
POINT_DATA 6400
VECTORS vector float
0.0 0.0 -0.2
-0.11303626896564177 0.0 -0.16499333895138643
-0.1770262845275695 0.0 -0.09306822543899729
-0.1988328859287296 0.0 -0.02157506600807516
-0.19608547799118314 0.0 0.039376202470137144
-0.17888543819998318 0.0 0.08944271909999159
-0.15233892848454253 0.0 0.1295872326588597
-0.11935490163366842 0.0 0.16048179789626404
-0.08192542733211639 0.0 0.182450607991451
-0.04165784145183827 0.0 0.19561345619760806
-1.6328623988631376e-17 0.0 0.2
0.0416578414518383 0.0 0.195613456197608
0.0819254273321164 0.0 0.18245060799145096
0.11935490163366838 0.0 0.16048179789626407
0.15233892848454253 0.0 0.1295872326588597
0.17888543819998318 0.0 0.08944271909999163
0.19608547799118314 0.0 0.03937620247013718
0.1988328859287296 0.0 -0.021575066008075332
0.1770262845275695 0.0 -0.09306822543899727
0.11303626896564184 0.0 -0.1649933389513864
9.797174393178826e-17 0.0 -0.2
-0.11303626896564173 0.0 -0.16499333895138646
-0.17702628452756955 0.0 -0.09306822543899711
-0.1988328859287296 0.0 -0.021575066008075044
-0.19608547799118314 0.0 0.03937620247013722
-0.1788854381999832 0.0 0.08944271909999157
-0.15233892848454256 0.0 0.12958723265885969
-0.11935490163366845 0.0 0.16048179789626402
-0.0819254273321164 0.0 0.18245060799145096
-0.041657841451838075 0.0 0.19561345619760806
-4.898587196589413e-17 0.0 0.2
0.04165784145183821 0.0 0.19561345619760806
0.08192542733211633 0.0 0.18245060799145102
0.11935490163366838 0.0 0.16048179789626407
0.15233892848454267 0.0 0.12958723265885957
0.17888543819998315 0.0 0.08944271909999164
0.19608547799118314 0.0 0.03937620247013722
0.1988328859287296 0.0 -0.0215750660080751
0.17702628452756952 0.0 -0.09306822543899719
0.1130362689656414 0.0 -0.16499333895138668
1.9594348786357652e-16 0.0 -0.2
-0.11303626896564214 0.0 -0.16499333895138618
-0.17702628452756944 0.0 -0.09306822543899738
-0.1988328859287296 0.0 -0.02157506600807528
-0.1960854779911831 0.0 0.039376202470137386
-0.1788854381999832 0.0 0.08944271909999152
-0.15233892848454245 0.0 0.12958723265885985
-0.11935490163366846 0.0 0.16048179789626402
-0.08192542733211623 0.0 0.18245060799145107
-0.041657841451838096 0.0 0.19561345619760806
-8.164311994315689e-17 0.0 0.2
0.0416578414518384 0.0 0.19561345619760798
0.08192542733211629 0.0 0.18245060799145107
0.11935490163366853 0.0 0.16048179789626396
0.15233892848454247 0.0 0.1295872326588598
0.178885438199983 0.0 0.08944271909999194
0.19608547799118312 0.0 0.03937620247013726
0.19883288592872958 0.0 -0.02157506600807539
0.1770262845275691 0.0 -0.09306822543899798
0.11303626896564148 0.0 -0.16499333895138663
2.9391523179536476e-16 0.0 -0.2
-0.1130362689656421 0.0 -0.1649933389513862
-0.17702628452756938 0.0 -0.09306822543899747
-0.19883288592872964 0.0 -0.02157506600807493
-0.19608547799118317 0.0 0.03937620247013702
-0.17888543819998312 0.0 0.08944271909999174
-0.1523389284845426 0.0 0.1295872326588596
-0.11935490163366831 0.0 0.16048179789626413
-0.08192542733211604 0.0 0.18245060799145116
-0.041657841451838123 0.0 0.19561345619760806
-1.1430036792041963e-16 0.0 0.2
0.04165784145183838 0.0 0.195613456197608
0.08192542733211626 0.0 0.18245060799145107
0.11935490163366852 0.0 0.16048179789626396
0.15233892848454245 0.0 0.12958723265885982
0.178885438199983 0.0 0.08944271909999198
0.19608547799118312 0.0 0.0393762024701373
0.1988328859287296 0.0 -0.021575066008075336
0.17702628452756913 0.0 -0.09306822543899791
0.11303626896564156 0.0 -0.16499333895138657
0.0 0.11303626896564177 -0.16499333895138643
-0.10406944506765772 0.10406944506765772 -0.1354219376859582
-0.16483576054189705 0.08665928770669473 -0.07293380492434695
-0.18664683883114042 0.07129274854077193 -0.008961113761389342
-0.18496214101749855 0.06009784267399361 0.046661072599704416
-0.16922251628725352 0.05229263336365267 0.09289359761202505
-0.1443608498969531 0.04690568349644219 0.13022980408785453
-0.11322532733698609 0.04324822665539607 0.15908996241308201
-0.07776815743187948 0.04088513989411785 0.179667801860792
-0.03955760429947626 0.039557604299476246 0.19201664481021463
-1.550708501003194e-17 0.03912926408376044 0.1961349043191021
0.03955760429947629 0.039557604299476246 0.19201664481021463
0.0777681574318795 0.04088513989411785 0.179667801860792
0.11322532733698608 0.043248226655396065 0.15908996241308201
0.1443608498969531 0.04690568349644219 0.13022980408785453
0.1692225162872535 0.052292633363652655 0.09289359761202509
0.18496214101749858 0.06009784267399361 0.046661072599704506
0.18664683883114042 0.07129274854077197 -0.0089611137613895
0.16483576054189705 0.08665928770669472 -0.07293380492434687
0.10406944506765776 0.1040694450676577 -0.13542193768595817
8.959345763901149e-17 0.11303626896564177 -0.16499333895138643
-0.10406944506765764 0.10406944506765772 -0.13542193768595825
-0.16483576054189714 0.08665928770669468 -0.0729338049243468
-0.18664683883114042 0.07129274854077192 -0.008961113761389238
-0.18496214101749853 0.06009784267399359 0.04666107259970453
-0.16922251628725352 0.05229263336365267 0.09289359761202501
-0.14436084989695316 0.046905683496442196 0.13022980408785448
-0.11322532733698615 0.04324822665539607 0.15908996241308196
-0.0777681574318795 0.04088513989411785 0.179667801860792
-0.03955760429947608 0.03955760429947624 0.19201664481021466
-4.652125503009582e-17 0.03912926408376044 0.1961349043191021
0.0395576042994762 0.039557604299476246 0.19201664481021463
0.07776815743187943 0.04088513989411785 0.17966780186079206
0.11322532733698605 0.043248226655396065 0.15908996241308204
0.14436084989695322 0.0469056834964422 0.13022980408785434
0.1692225162872535 0.052292633363652655 0.09289359761202513
0.18496214101749855 0.060097842673993596 0.04666107259970449
0.18664683883114042 0.07129274854077192 -0.00896111376138929
0.16483576054189708 0.0866592877066947 -0.0729338049243468
0.10406944506765739 0.10406944506765779 -0.13542193768595842
1.7918691527802298e-16 0.11303626896564177 -0.16499333895138643
-0.10406944506765806 0.10406944506765764 -0.135421937685958
-0.164835760541897 0.08665928770669476 -0.07293380492434696
-0.18664683883114042 0.07129274854077196 -0.00896111376138945
-0.18496214101749853 0.060097842673993575 0.046661072599704645
-0.16922251628725354 0.052292633363652676 0.092893597612025
-0.144360849896953 0.04690568349644217 0.13022980408785464
-0.11322532733698615 0.04324822665539607 0.15908996241308196
-0.07776815743187933 0.04088513989411784 0.1796678018607921
-0.0395576042994761 0.03955760429947624 0.19201664481021466
-7.75354250501597e-17 0.03912926408376044 0.1961349043191021
0.03955760429947639 0.039557604299476246 0.1920166448102146
0.0777681574318794 0.04088513989411785 0.1796678018607921
0.11322532733698619 0.04324822665539607 0.1590899624130819
0.14436084989695305 0.046905683496442176 0.13022980408785456
0.16922251628725332 0.05229263336365261 0.09289359761202537
0.18496214101749853 0.06009784267399359 0.04666107259970457
0.18664683883114036 0.07129274854077197 -0.008961113761389554
0.16483576054189672 0.08665928770669488 -0.0729338049243475
0.10406944506765746 0.10406944506765779 -0.13542193768595837
2.6878037291703446e-16 0.11303626896564177 -0.16499333895138643
-0.10406944506765799 0.10406944506765765 -0.13542193768595803
-0.16483576054189694 0.08665928770669477 -0.0729338049243471
-0.18664683883114042 0.07129274854077189 -0.008961113761389132
-0.18496214101749858 0.06009784267399363 0.046661072599704305
-0.16922251628725343 0.052292633363652634 0.09289359761202519
-0.1443608498969532 0.0469056834964422 0.13022980408785442
-0.11322532733698598 0.04324822665539605 0.15908996241308207
-0.07776815743187915 0.040885139894117836 0.17966780186079218
-0.03955760429947613 0.03955760429947624 0.19201664481021466
-1.0854959507022359e-16 0.03912926408376044 0.1961349043191021
0.03955760429947636 0.039557604299476246 0.1920166448102146
0.07776815743187937 0.04088513989411785 0.17966780186079212
0.11322532733698619 0.04324822665539607 0.1590899624130819
0.14436084989695305 0.046905683496442176 0.13022980408785462
0.16922251628725332 0.05229263336365261 0.09289359761202542
0.18496214101749853 0.06009784267399359 0.04666107259970461
0.18664683883114042 0.07129274854077197 -0.008961113761389554
0.16483576054189675 0.08665928770669488 -0.07293380492434745
0.10406944506765753 0.10406944506765776 -0.13542193768595834
0.0 0.1770262845275695 -0.09306822543899729
-0.08665928770669473 0.16483576054189705 -0.07293380492434695
-0.14001684783182314 0.14001684783182314 -0.02811698146103485
-0.16094863512923735 0.11693602824580854 0.020530517483276126
-0.16099391941349964 0.09949971417960432 0.06465883381299607
-0.14812990158319048 0.08706857157413483 0.10235524461889617
-0.12680753550602047 0.07837136697232976 0.13333333333333333
-0.09967284916884296 0.0724165638086282 0.15754734026544517
-0.06854920516722125 0.06854920516722122 0.17493431036215973
-0.034892809628200405 0.06637006793749253 0.1854117200131178
-1.3681464490748183e-17 0.06566597865624539 0.1889126233133126
0.03489280962820044 0.06637006793749255 0.1854117200131178
0.06854920516722127 0.06854920516722122 0.1749343103621597
0.09967284916884293 0.0724165638086282 0.1575473402654452
0.12680753550602047 0.07837136697232976 0.13333333333333333
0.14812990158319045 0.08706857157413482 0.10235524461889621
0.1609939194134996 0.09949971417960429 0.06465883381299609
0.1609486351292373 0.11693602824580857 0.020530517483276
0.14001684783182314 0.1400168478318231 -0.02811698146103485
0.08665928770669479 0.16483576054189703 -0.07293380492434694
7.376662543542783e-17 0.1770262845275695 -0.09306822543899729
-0.08665928770669468 0.16483576054189705 -0.07293380492434695
-0.1400168478318232 0.14001684783182308 -0.02811698146103473
-0.16094863512923735 0.1169360282458085 0.020530517483276205
-0.1609939194134996 0.09949971417960428 0.06465883381299611
-0.14812990158319048 0.08706857157413483 0.10235524461889614
-0.1268075355060205 0.07837136697232977 0.1333333333333333
-0.09967284916884299 0.0724165638086282 0.15754734026544517
-0.06854920516722127 0.06854920516722122 0.1749343103621597
-0.03489280962820025 0.06637006793749253 0.18541172001311787
-4.104439347224454e-17 0.06566597865624539 0.1889126233133126
0.034892809628200364 0.06637006793749255 0.18541172001311781
0.06854920516722118 0.06854920516722122 0.17493431036215973
0.09967284916884293 0.0724165638086282 0.15754734026544523
0.1268075355060206 0.07837136697232978 0.13333333333333322
0.14812990158319042 0.08706857157413479 0.10235524461889621
0.1609939194134996 0.09949971417960428 0.06465883381299611
0.16094863512923738 0.11693602824580851 0.020530517483276167
0.14001684783182317 0.14001684783182308 -0.028116981461034786
0.08665928770669443 0.16483576054189714 -0.0729338049243471
1.4753325087085566e-16 0.1770262845275695 -0.09306822543899729
-0.08665928770669501 0.16483576054189697 -0.07293380492434678
-0.14001684783182308 0.1400168478318232 -0.028116981461034907
-0.16094863512923732 0.11693602824580857 0.020530517483276042
-0.1609939194134996 0.09949971417960424 0.06465883381299624
-0.14812990158319048 0.08706857157413483 0.10235524461889611
-0.1268075355060204 0.07837136697232973 0.13333333333333344
-0.09967284916884302 0.0724165638086282 0.15754734026544515
-0.06854920516722111 0.06854920516722122 0.17493431036215978
-0.03489280962820027 0.06637006793749253 0.18541172001311787
-6.840732245374091e-17 0.06566597865624539 0.1889126233133126
0.03489280962820053 0.06637006793749255 0.1854117200131178
0.06854920516722117 0.06854920516722122 0.17493431036215976
0.09967284916884306 0.0724165638086282 0.15754734026544512
0.12680753550602045 0.07837136697232974 0.1333333333333334
0.14812990158319034 0.08706857157413474 0.10235524461889645
0.1609939194134996 0.09949971417960427 0.06465883381299614
0.1609486351292373 0.11693602824580858 0.02053051748327596
0.14001684783182283 0.14001684783182336 -0.02811698146103532
0.08665928770669447 0.16483576054189708 -0.07293380492434703
2.2129987630628351e-16 0.1770262845275695 -0.09306822543899729
-0.08665928770669497 0.16483576054189697 -0.0729338049243468
-0.14001684783182303 0.1400168478318232 -0.028116981461034963
-0.16094863512923735 0.11693602824580847 0.02053051748327629
-0.16099391941349964 0.09949971417960435 0.06465883381299596
-0.1481299015831904 0.08706857157413478 0.10235524461889628
-0.12680753550602053 0.07837136697232977 0.13333333333333328
-0.09967284916884288 0.0724165638086282 0.15754734026544526
-0.06854920516722095 0.06854920516722121 0.17493431036215984
-0.034892809628200294 0.06637006793749253 0.18541172001311784
-9.577025143523728e-17 0.06566597865624539 0.1889126233133126
0.03489280962820051 0.06637006793749255 0.1854117200131178
0.06854920516722114 0.06854920516722122 0.17493431036215976
0.09967284916884304 0.0724165638086282 0.15754734026544515
0.1268075355060204 0.07837136697232973 0.13333333333333341
0.1481299015831903 0.08706857157413472 0.10235524461889645
0.1609939194134996 0.09949971417960427 0.06465883381299618
0.16094863512923732 0.11693602824580858 0.020530517483276
0.14001684783182283 0.14001684783182333 -0.028116981461035258
0.08665928770669455 0.16483576054189708 -0.07293380492434703
0.0 0.1988328859287296 -0.02157506600807516
-0.07129274854077193 0.18664683883114042 -0.008961113761389342
-0.11693602824580854 0.16094863512923735 0.020530517483276126
-0.13605711150953442 0.13605711150953442 0.05456120247359151
-0.1371708967164916 0.11668453417425778 0.08699922171220885
-0.1268303431353208 0.10260790299888045 0.11569650946484569
-0.1089071064143034 0.09264191810660882 0.13984533307190478
-0.08576747198931876 0.08576747198931876 0.15902163845566064
-0.05905496848675765 0.08128219093916811 0.17293269249380433
-0.030079081524720542 0.07874805778209738 0.18136700981759796
-1.1796362822429322e-17 0.07792824838804682 0.18419334435090448
0.030079081524720566 0.07874805778209738 0.18136700981759796
0.059054968486757654 0.08128219093916811 0.17293269249380433
0.08576747198931875 0.08576747198931876 0.15902163845566064
0.1089071064143034 0.09264191810660882 0.13984533307190478
0.1268303431353208 0.10260790299888045 0.11569650946484573
0.1371708967164916 0.11668453417425775 0.08699922171220886
0.13605711150953437 0.13605711150953445 0.05456120247359145
0.11693602824580854 0.16094863512923732 0.020530517483276167
0.07129274854077199 0.18664683883114042 -0.008961113761389342
6.019652467399143e-17 0.1988328859287296 -0.02157506600807516
-0.07129274854077189 0.18664683883114042 -0.008961113761389394
-0.11693602824580861 0.1609486351292373 0.020530517483276205
-0.13605711150953442 0.13605711150953437 0.054561202473591565
-0.1371708967164916 0.11668453417425773 0.0869992217122089
-0.1268303431353208 0.10260790299888048 0.11569650946484566
-0.10890710641430341 0.09264191810660884 0.13984533307190475
-0.08576747198931879 0.08576747198931878 0.15902163845566064
-0.059054968486757654 0.08128219093916811 0.17293269249380433
-0.030079081524720403 0.07874805778209737 0.18136700981759796
-3.5389088467287965e-17 0.07792824838804682 0.18419334435090448
0.030079081524720493 0.07874805778209737 0.18136700981759793
0.05905496848675759 0.0812821909391681 0.17293269249380436
0.08576747198931872 0.08576747198931875 0.15902163845566067
0.10890710641430348 0.09264191810660886 0.13984533307190467
0.12683034313532077 0.10260790299888045 0.11569650946484573
0.1371708967164916 0.11668453417425773 0.08699922171220889
0.1360571115095344 0.13605711150953437 0.054561202473591565
0.11693602824580858 0.16094863512923732 0.020530517483276167
0.07129274854077168 0.1866468388311405 -0.00896111376138945
1.2039304934798286e-16 0.1988328859287296 -0.02157506600807516
-0.07129274854077218 0.18664683883114033 -0.008961113761389288
-0.1169360282458085 0.1609486351292374 0.020530517483276084
-0.1360571115095344 0.13605711150953445 0.05456120247359145
-0.13717089671649157 0.11668453417425771 0.08699922171220897
-0.1268303431353208 0.1026079029988805 0.11569650946484566
-0.10890710641430333 0.09264191810660881 0.13984533307190483
-0.0857674719893188 0.08576747198931878 0.15902163845566064
-0.059054968486757536 0.0812821909391681 0.17293269249380439
-0.03007908152472042 0.07874805778209737 0.18136700981759796
-5.898181411214662e-17 0.07792824838804682 0.18419334435090448
0.030079081524720643 0.07874805778209738 0.18136700981759793
0.059054968486757564 0.0812821909391681 0.17293269249380436
0.08576747198931885 0.08576747198931878 0.15902163845566059
0.10890710641430337 0.09264191810660882 0.1398453330719048
0.12683034313532066 0.10260790299888037 0.11569650946484589
0.13717089671649157 0.11668453417425771 0.0869992217122089
0.13605711150953434 0.13605711150953445 0.05456120247359138
0.11693602824580825 0.16094863512923757 0.020530517483275845
0.07129274854077174 0.1866468388311405 -0.00896111376138945
1.8058957402197429e-16 0.1988328859287296 -0.02157506600807516
-0.07129274854077214 0.18664683883114033 -0.008961113761389288
-0.11693602824580845 0.16094863512923743 0.020530517483276046
-0.13605711150953445 0.13605711150953434 0.054561202473591634
-0.1371708967164916 0.11668453417425782 0.08699922171220878
-0.1268303431353207 0.10260790299888041 0.11569650946484578
-0.10890710641430346 0.09264191810660885 0.1398453330719047
-0.08576747198931868 0.08576747198931874 0.15902163845566072
-0.05905496848675738 0.08128219093916807 0.1729326924938044
-0.03007908152472044 0.07874805778209737 0.18136700981759796
-8.257453975700525e-17 0.07792824838804682 0.18419334435090448
0.030079081524720615 0.07874805778209737 0.1813670098175979
0.05905496848675754 0.0812821909391681 0.17293269249380439
0.08576747198931883 0.08576747198931878 0.15902163845566059
0.10890710641430335 0.09264191810660881 0.1398453330719048
0.12683034313532066 0.10260790299888037 0.11569650946484594
0.1371708967164916 0.11668453417425771 0.08699922171220893
0.13605711150953437 0.13605711150953445 0.05456120247359142
0.11693602824580827 0.16094863512923757 0.020530517483275845
0.07129274854077179 0.18664683883114047 -0.00896111376138945
0.0 0.19608547799118314 0.039376202470137144
-0.06009784267399361 0.18496214101749855 0.046661072599704416
-0.09949971417960432 0.16099391941349964 0.06465883381299607
-0.11668453417425778 0.1371708967164916 0.08699922171220885
-0.11826278235510373 0.11826278235510373 0.10967145763259796
-0.10971554294603558 0.1043456820576879 0.13066934710165398
-0.09441171492970768 0.09441171492970768 0.14890552766120949
-0.07445212996801652 0.08752372799392519 0.16369629617456521
-0.05130610306683761 0.08301501859244846 0.17457431218879393
-0.026143950284701453 0.08046280538795392 0.18122425558575575
-1.0254541742638992e-17 0.07963642049893609 0.18346127801287287
0.02614395028470147 0.08046280538795392 0.18122425558575575
0.05130610306683762 0.08301501859244846 0.1745743121887939
0.0744521299680165 0.08752372799392516 0.16369629617456521
0.09441171492970768 0.09441171492970768 0.14890552766120949
0.10971554294603557 0.10434568205768789 0.13066934710165398
0.11826278235510373 0.11826278235510373 0.10967145763259799
0.11668453417425775 0.13717089671649166 0.08699922171220881
0.09949971417960435 0.16099391941349964 0.06465883381299607
0.06009784267399365 0.18496214101749855 0.046661072599704416
5.0498671502011335e-17 0.19608547799118314 0.039376202470137144
-0.060097842673993575 0.1849621410174986 0.04666107259970442
-0.09949971417960438 0.16099391941349958 0.06465883381299611
-0.11668453417425778 0.13717089671649157 0.08699922171220889
-0.11826278235510373 0.11826278235510371 0.109671457632598
-0.10971554294603558 0.1043456820576879 0.13066934710165395
-0.09441171492970771 0.0944117149297077 0.14890552766120946
-0.07445212996801655 0.08752372799392519 0.16369629617456521
-0.05130610306683762 0.08301501859244846 0.1745743121887939
-0.02614395028470133 0.0804628053879539 0.18122425558575575
-3.076362522791698e-17 0.07963642049893609 0.18346127801287287
0.026143950284701414 0.08046280538795392 0.18122425558575575
0.051306103066837576 0.08301501859244846 0.17457431218879393